  python dir          : /nfs/slac/g/suncatfs/aidank/software/ase-espresso/lib/python2.7/site-packages/espresso
  espresso dir        : /nfs/slac/g/suncatfs/aidank/software/espresso-qeforge/bin
  pseudo dir          : /nfs/slac/g/suncatfs/aidank/scripts/gbrv/
  ase-espresso py git : c91b4c2-git



     Program PWSCF v.5.0.2 (svn rev. 10453) starts on 18Feb2017 at  5:50:51 

     This program is part of the open-source Quantum ESPRESSO suite
     for quantum simulation of materials; please cite
         "P. Giannozzi et al., J. Phys.:Condens. Matter 21 395502 (2009);
          URL http://www.quantum-espresso.org", 
     in publications or presentations arising from this work. More details at
     http://www.quantum-espresso.org/quote

     Parallel version (MPI), running on    12 processors
     R & G space division:  proc/nbgrp/npool/nimage =      12
     Reading input from pw.inp
     Message from routine read_cards :
     DEPRECATED: no units specified in CELL_PARAMETERS card

     Current dimensions of program PWSCF are:
     Max number of different atomic species (ntypx) = 10
     Max number of k-points (npk) =  40000
     Max angular momentum in pseudopotentials (lmaxx) =  3
     Presently no symmetry can be used with electric field


     IMPORTANT: XC functional enforced from input :
     Exchange-correlation      = PBE ( 1  4  3  4 0)
     Any further DFT definition will be discarded
     Please, verify this is what you really want


     Subspace diagonalization in iterative solution of the eigenvalue problem:
     a serial algorithm will be used

 
     Parallelization info
     --------------------
     sticks:   dense  smooth     PW     G-vecs:    dense   smooth      PW
     Min          81      39     12                 9513     3338     586
     Max          82      40     16                 9522     3378     597
     Sum         981     479    161               114205    40347    7083
 


     bravais-lattice index     =            0
     lattice parameter (alat)  =       1.8897  a.u.
     unit-cell volume          =    1872.8848 (a.u.)^3
     number of atoms/cell      =            8
     number of atomic types    =            3
     number of electrons       =        84.00
     number of Kohn-Sham states=           72
     kinetic-energy cutoff     =      29.3995  Ry
     charge density cutoff     =     235.1957  Ry
     convergence threshold     =      1.0E-06
     mixing beta               =       0.1000
     number of iterations used =           15  plain     mixing
     Exchange-correlation      = PBE ( 1  4  3  4 0)
     nstep                     =           50


     celldm(1)=   1.889726  celldm(2)=   0.000000  celldm(3)=   0.000000
     celldm(4)=   0.000000  celldm(5)=   0.000000  celldm(6)=   0.000000

     crystal axes: (cart. coord. in units of alat)
               a(1) = (   5.784133   0.000000   0.000000 )  
               a(2) = (   1.446033   2.504603   0.000000 )  
               a(3) = (   0.000000   0.000000  19.157428 )  

     reciprocal axes: (cart. coord. in units 2 pi/alat)
               b(1) = (  0.172887 -0.099816  0.000000 )  
               b(2) = (  0.000000  0.399265  0.000000 )  
               b(3) = (  0.000000  0.000000  0.052199 )  


     PseudoPot. # 1 for Ag read from file:
     /nfs/slac/g/suncatfs/aidank/scripts/gbrv/Ag.UPF
     MD5 check sum: d66d668201baa78d5eb5b04ef7011058
     Pseudo is Ultrasoft + core correction, Zval = 19.0
     Generated by new atomic code, or converted to UPF format
     Using radial grid of  887 points,  6 beta functions with: 
                l(1) =   0
                l(2) =   0
                l(3) =   1
                l(4) =   1
                l(5) =   2
                l(6) =   2
     Q(r) pseudized with  6 coefficients,  rinner =    1.300   1.300   1.300
                                                       1.300   1.300

     PseudoPot. # 2 for N  read from file:
     /nfs/slac/g/suncatfs/aidank/scripts/gbrv/N.UPF
     MD5 check sum: 95339753478d7afb44899504a8723017
     Pseudo is Ultrasoft + core correction, Zval =  5.0
     Generated by new atomic code, or converted to UPF format
     Using radial grid of  729 points,  4 beta functions with: 
                l(1) =   0
                l(2) =   0
                l(3) =   1
                l(4) =   1
     Q(r) pseudized with  8 coefficients,  rinner =    0.900   0.900   0.900


     PseudoPot. # 3 for H  read from file:
     /nfs/slac/g/suncatfs/aidank/scripts/gbrv/H.UPF
     MD5 check sum: 761ae9a214b05c3daf00ab9f6b793d6f
     Pseudo is Ultrasoft, Zval =  1.0
     Generated by new atomic code, or converted to UPF format
     Using radial grid of  615 points,  2 beta functions with: 
                l(1) =   0
                l(2) =   0
     Q(r) pseudized with  8 coefficients,  rinner =    0.700

     atomic species   valence    mass     pseudopotential
        Ag1           19.00   107.86800     Ag( 1.00)
        N1             5.00    14.00670     N ( 1.00)
        H1             1.00     1.00794     H ( 1.00)

     No symmetry found



   Cartesian axes

     site n.     atom                  positions (alat units)
         1           Ag1 tau(   1) = (   5.4594866   0.7084522   7.1205000  )
         2           Ag1 tau(   2) = (   2.5674199   0.7084522   7.1205000  )
         3           Ag1 tau(   3) = (   1.1213865   1.5433200   9.4818626  )
         4           Ag1 tau(   4) = (   4.0134533   1.5433200   9.4818626  )
         5           N1  tau(   5) = (   4.4804116   1.6201406  11.4772175  )
         6           H1  tau(   6) = (   4.3552705   1.8781596  12.4289998  )
         7           H1  tau(   7) = (   4.1978042   0.6524487  11.4652377  )
         8           H1  tau(   8) = (   2.9999914   2.1848484  11.0762350  )

     number of k points=     6  Fermi-Dirac smearing, width (Ry)=  0.0073
                       cart. coord. in units 2pi/alat
        k(    1) = (   0.0000000   0.0000000   0.0000000), wk =   0.2500000
        k(    2) = (   0.0000000   0.0998162   0.0000000), wk =   0.5000000
        k(    3) = (   0.0000000  -0.1996324   0.0000000), wk =   0.2500000
        k(    4) = (  -0.0864434   0.0499081   0.0000000), wk =   0.2500000
        k(    5) = (  -0.0864434   0.1497243   0.0000000), wk =   0.5000000
        k(    6) = (  -0.0864434  -0.1497243   0.0000000), wk =   0.2500000

     Dense  grid:   114205 G-vectors     FFT dimensions: (  54,  27, 180)

     Smooth grid:    40347 G-vectors     FFT dimensions: (  40,  20, 125)

     Largest allocated arrays     est. size (Mb)     dimensions
        Kohn-Sham Wavefunctions         0.49 Mb     (     450,   72)
        NL pseudopotentials             0.59 Mb     (     450,   86)
        Each V/rho on FFT grid          0.33 Mb     (   21870)
        Each G-vector array             0.07 Mb     (    9513)
        G-vector shells                 0.03 Mb     (    3999)
     Largest temporary arrays     est. size (Mb)     dimensions
        Auxiliary wavefunctions         1.98 Mb     (     450,  288)
        Each subspace H/S matrix        1.27 Mb     (     288,  288)
        Each <psi_i|beta_j> matrix      0.09 Mb     (      86,   72)
        Arrays for rho mixing           5.01 Mb     (   21870,   15)

     Initial potential from superposition of free atoms
     Check: negative starting charge=   -0.002395

     starting charge   81.99978, renormalised to   84.00000

     negative rho (up, down):  2.454E-03 0.000E+00
 
     Adding external electric field

     Computed dipole along edir(3) : 
        Dipole               -1.1958 Ry au,         -3.0395 Debye
        Dipole field         -0.0080 Ry au
 
        Potential amp.        0.5664 Ry
        Total length         35.2972 bohr
 
     Starting wfc are   59 randomized atomic wfcs +   13 random wfc

     total cpu time spent up to now is        1.1 secs

     per-process dynamical memory:    18.4 Mb

     Self-consistent Calculation

     iteration #  1     ecut=    29.40 Ry     beta=0.10
     Davidson diagonalization with overlap
     ethr =  1.00E-02,  avg # of iterations =  7.2

     negative rho (up, down):  1.087E-03 0.000E+00
 
     Adding external electric field

     Computed dipole along edir(3) : 
        Dipole                1.3976 Ry au,          3.5523 Debye
        Dipole field          0.0094 Ry au
 
        Potential amp.       -0.6620 Ry
        Total length         35.2972 bohr
 

     total cpu time spent up to now is        5.0 secs

     total energy              =   -1203.77914805 Ry
     Harris-Foulkes estimate   =   -1207.55194782 Ry
     estimated scf accuracy    <      21.51621247 Ry

     iteration #  2     ecut=    29.40 Ry     beta=0.10
     Davidson diagonalization with overlap
     ethr =  1.00E-02,  avg # of iterations =  3.5

     negative rho (up, down):  7.285E-04 0.000E+00
 
     Adding external electric field

     Computed dipole along edir(3) : 
        Dipole                0.0088 Ry au,          0.0224 Debye
        Dipole field          0.0001 Ry au
 
        Potential amp.       -0.0042 Ry
        Total length         35.2972 bohr
 

     total cpu time spent up to now is        6.8 secs

     total energy              =   -1204.93313979 Ry
     Harris-Foulkes estimate   =   -1207.29515584 Ry
     estimated scf accuracy    <      26.76235073 Ry

     iteration #  3     ecut=    29.40 Ry     beta=0.10
     Davidson diagonalization with overlap
     ethr =  1.00E-02,  avg # of iterations =  2.0

     negative rho (up, down):  7.733E-04 0.000E+00
 
     Adding external electric field

     Computed dipole along edir(3) : 
        Dipole                0.0707 Ry au,          0.1796 Debye
        Dipole field          0.0005 Ry au
 
        Potential amp.       -0.0335 Ry
        Total length         35.2972 bohr
 

     total cpu time spent up to now is        8.3 secs

     total energy              =   -1205.92291942 Ry
     Harris-Foulkes estimate   =   -1206.13752256 Ry
     estimated scf accuracy    <       1.19016697 Ry

     iteration #  4     ecut=    29.40 Ry     beta=0.10
     Davidson diagonalization with overlap
     ethr =  1.42E-03,  avg # of iterations =  2.5

     negative rho (up, down):  8.974E-04 0.000E+00
 
     Adding external electric field

     Computed dipole along edir(3) : 
        Dipole                0.2567 Ry au,          0.6525 Debye
        Dipole field          0.0017 Ry au
 
        Potential amp.       -0.1216 Ry
        Total length         35.2972 bohr
 

     total cpu time spent up to now is        9.9 secs

     total energy              =   -1205.72776118 Ry
     Harris-Foulkes estimate   =   -1205.95114575 Ry
     estimated scf accuracy    <       0.52048082 Ry

     iteration #  5     ecut=    29.40 Ry     beta=0.10
     Davidson diagonalization with overlap
     ethr =  6.20E-04,  avg # of iterations =  4.2

     negative rho (up, down):  1.044E-03 0.000E+00
 
     Adding external electric field

     Computed dipole along edir(3) : 
        Dipole                0.2543 Ry au,          0.6463 Debye
        Dipole field          0.0017 Ry au
 
        Potential amp.       -0.1204 Ry
        Total length         35.2972 bohr
 

     total cpu time spent up to now is       11.9 secs

     total energy              =   -1205.80871351 Ry
     Harris-Foulkes estimate   =   -1205.81549563 Ry
     estimated scf accuracy    <       0.03104710 Ry

     iteration #  6     ecut=    29.40 Ry     beta=0.10
     Davidson diagonalization with overlap
     ethr =  3.70E-05,  avg # of iterations =  5.2

     negative rho (up, down):  1.351E-03 0.000E+00
 
     Adding external electric field

     Computed dipole along edir(3) : 
        Dipole                0.2833 Ry au,          0.7200 Debye
        Dipole field          0.0019 Ry au
 
        Potential amp.       -0.1342 Ry
        Total length         35.2972 bohr
 

     total cpu time spent up to now is       13.9 secs

     total energy              =   -1205.80687802 Ry
     Harris-Foulkes estimate   =   -1205.80993818 Ry
     estimated scf accuracy    <       0.01460576 Ry

     iteration #  7     ecut=    29.40 Ry     beta=0.10
     Davidson diagonalization with overlap
     ethr =  1.74E-05,  avg # of iterations =  5.5

     negative rho (up, down):  1.422E-03 0.000E+00
 
     Adding external electric field

     Computed dipole along edir(3) : 
        Dipole                0.2710 Ry au,          0.6888 Debye
        Dipole field          0.0018 Ry au
 
        Potential amp.       -0.1284 Ry
        Total length         35.2972 bohr
 

     total cpu time spent up to now is       16.0 secs

     total energy              =   -1205.80697961 Ry
     Harris-Foulkes estimate   =   -1205.80800864 Ry
     estimated scf accuracy    <       0.00523463 Ry

     iteration #  8     ecut=    29.40 Ry     beta=0.10
     Davidson diagonalization with overlap
     ethr =  6.23E-06,  avg # of iterations =  1.2

     negative rho (up, down):  1.711E-03 0.000E+00
 
     Adding external electric field

     Computed dipole along edir(3) : 
        Dipole                0.2288 Ry au,          0.5815 Debye
        Dipole field          0.0015 Ry au
 
        Potential amp.       -0.1084 Ry
        Total length         35.2972 bohr
 

     total cpu time spent up to now is       17.3 secs

     total energy              =   -1205.80691585 Ry
     Harris-Foulkes estimate   =   -1205.80742260 Ry
     estimated scf accuracy    <       0.00214169 Ry

     iteration #  9     ecut=    29.40 Ry     beta=0.10
     Davidson diagonalization with overlap
     ethr =  2.55E-06,  avg # of iterations =  3.7

     negative rho (up, down):  1.952E-03 0.000E+00
 
     Adding external electric field

     Computed dipole along edir(3) : 
        Dipole                0.2119 Ry au,          0.5386 Debye
        Dipole field          0.0014 Ry au
 
        Potential amp.       -0.1004 Ry
        Total length         35.2972 bohr
 

     total cpu time spent up to now is       19.2 secs

     total energy              =   -1205.80706660 Ry
     Harris-Foulkes estimate   =   -1205.80720229 Ry
     estimated scf accuracy    <       0.00042390 Ry

     iteration # 10     ecut=    29.40 Ry     beta=0.10
     Davidson diagonalization with overlap
     ethr =  5.05E-07,  avg # of iterations =  3.5

     negative rho (up, down):  2.022E-03 0.000E+00
 
     Adding external electric field

     Computed dipole along edir(3) : 
        Dipole                0.2175 Ry au,          0.5527 Debye
        Dipole field          0.0015 Ry au
 
        Potential amp.       -0.1030 Ry
        Total length         35.2972 bohr
 

     total cpu time spent up to now is       20.9 secs

     total energy              =   -1205.80710745 Ry
     Harris-Foulkes estimate   =   -1205.80710602 Ry
     estimated scf accuracy    <       0.00013986 Ry

     iteration # 11     ecut=    29.40 Ry     beta=0.10
     Davidson diagonalization with overlap
     ethr =  1.67E-07,  avg # of iterations =  1.2

     negative rho (up, down):  2.173E-03 0.000E+00
 
     Adding external electric field

     Computed dipole along edir(3) : 
        Dipole                0.2138 Ry au,          0.5435 Debye
        Dipole field          0.0014 Ry au
 
        Potential amp.       -0.1013 Ry
        Total length         35.2972 bohr
 

     total cpu time spent up to now is       22.2 secs

     total energy              =   -1205.80712301 Ry
     Harris-Foulkes estimate   =   -1205.80713101 Ry
     estimated scf accuracy    <       0.00002684 Ry

     iteration # 12     ecut=    29.40 Ry     beta=0.10
     Davidson diagonalization with overlap
     ethr =  3.20E-08,  avg # of iterations =  1.8

     negative rho (up, down):  2.252E-03 0.000E+00
 
     Adding external electric field

     Computed dipole along edir(3) : 
        Dipole                0.2117 Ry au,          0.5381 Debye
        Dipole field          0.0014 Ry au
 
        Potential amp.       -0.1003 Ry
        Total length         35.2972 bohr
 

     total cpu time spent up to now is       23.6 secs

     total energy              =   -1205.80712649 Ry
     Harris-Foulkes estimate   =   -1205.80713077 Ry
     estimated scf accuracy    <       0.00000830 Ry

     iteration # 13     ecut=    29.40 Ry     beta=0.10
     Davidson diagonalization with overlap
     ethr =  9.88E-09,  avg # of iterations =  1.0

     negative rho (up, down):  2.275E-03 0.000E+00
 
     Adding external electric field

     Computed dipole along edir(3) : 
        Dipole                0.2115 Ry au,          0.5375 Debye
        Dipole field          0.0014 Ry au
 
        Potential amp.       -0.1002 Ry
        Total length         35.2972 bohr
 

     total cpu time spent up to now is       24.9 secs

     total energy              =   -1205.80712848 Ry
     Harris-Foulkes estimate   =   -1205.80712771 Ry
     estimated scf accuracy    <       0.00000144 Ry

     iteration # 14     ecut=    29.40 Ry     beta=0.10
     Davidson diagonalization with overlap
     ethr =  1.71E-09,  avg # of iterations =  2.0

     negative rho (up, down):  2.313E-03 0.000E+00
 
     Adding external electric field

     Computed dipole along edir(3) : 
        Dipole                0.2111 Ry au,          0.5365 Debye
        Dipole field          0.0014 Ry au
 
        Potential amp.       -0.1000 Ry
        Total length         35.2972 bohr
 

     total cpu time spent up to now is       26.4 secs

     End of self-consistent calculation

          k = 0.0000 0.0000 0.0000 (  5071 PWs)   bands (ev):

   -90.4063 -90.1384 -90.0689 -90.0523 -53.9080 -53.8809 -53.8375 -53.6638
   -53.5798 -53.5528 -53.5370 -53.5277 -53.5057 -53.4987 -53.4655 -53.4520
   -15.7331  -6.4594  -5.2551  -4.6478  -4.4173  -4.2992  -4.0549  -3.5024
    -3.1011  -2.9189  -2.8873  -2.7892  -2.7634  -2.6795  -2.5634  -2.0533
    -1.8906  -1.7378  -1.6714  -1.4681  -1.4149  -1.3606  -1.1457  -1.0266
    -0.4019   0.7245   1.6340   2.7126   3.4984   4.4410   5.3066   5.7854
     6.5294   6.6436   7.5354   8.0767   9.0247   9.3442   9.4531   9.8160
    10.3961  11.0599  11.1256  11.3549  11.5952  12.3311  12.6395  12.8098
    13.2124  13.8590  13.9395  14.5226  15.0532  15.1379  15.8382  16.5253

          k = 0.0000 0.0998 0.0000 (  5031 PWs)   bands (ev):

   -90.4034 -90.1353 -90.0662 -90.0498 -53.9053 -53.8772 -53.8710 -53.6455
   -53.6184 -53.5528 -53.5516 -53.5433 -53.5289 -53.5110 -53.4858 -53.4532
   -15.3308  -6.5118  -4.9722  -4.1832  -4.0170  -3.7145  -3.6079  -3.3461
    -3.2936  -3.1902  -2.8727  -2.7563  -2.6241  -2.4409  -2.4099  -2.3012
    -2.2013  -2.1003  -1.9422  -1.8198  -1.6809  -1.4575  -1.3193  -0.8695
    -0.7868   1.6284   2.1765   3.4178   4.9760   5.8989   6.5617   6.8874
     7.9142   8.1644   8.4395   8.7196   9.1033   9.3662   9.6507  10.6756
    10.6930  10.8850  11.1504  11.4701  12.0665  12.3495  12.4422  13.2426
    13.4290  13.6477  14.0525  14.3976  14.8072  15.0882  15.3470  15.5184

          k = 0.0000-0.1996 0.0000 (  5048 PWs)   bands (ev):

   -90.4005 -90.1323 -90.0633 -90.0472 -53.9265 -53.8954 -53.8683 -53.6681
   -53.6493 -53.5695 -53.5505 -53.5475 -53.5409 -53.5264 -53.4720 -53.4646
   -14.8522  -7.0963  -5.1608  -4.4946  -4.3431  -4.2822  -4.0294  -3.8609
    -3.7149  -3.3108  -2.8784  -2.6713  -2.4525  -2.1340  -1.8087  -1.5922
    -1.5105  -1.4862  -1.2396  -1.0905  -1.0244  -1.0164  -0.8882  -0.5657
     2.3138   2.5556   3.1831   3.4114   4.9559   5.8734   6.4326   6.6592
     8.0364   8.4632   8.9026   9.5831   9.9952  10.3377  10.6935  10.9292
    11.0214  11.0907  11.1706  11.2298  11.4985  12.2727  12.3512  12.5013
    12.5737  12.7282  13.0480  13.2043  13.5817  13.8656  14.2389  14.4547

          k =-0.0864 0.0499 0.0000 (  5024 PWs)   bands (ev):

   -90.4062 -90.1380 -90.0694 -90.0524 -53.9071 -53.8710 -53.8362 -53.6309
   -53.5757 -53.5640 -53.5575 -53.5394 -53.5090 -53.5010 -53.4653 -53.4504
   -15.7226  -6.3817  -5.1773  -4.1222  -3.9144  -3.7764  -3.6630  -3.3218
    -3.1864  -3.1018  -2.9005  -2.8327  -2.5427  -2.3747  -2.3339  -2.2664
    -2.1727  -2.1120  -2.0453  -1.9475  -1.8416  -1.6867  -1.4200  -1.3192
    -1.0496  -0.3013   1.4639   2.4397   3.7795   5.2173   5.7984   6.1484
     6.6384   6.7998   7.0887   7.9343   8.2978   8.4945   9.0726   9.6272
    10.5172  10.8989  11.1841  12.0820  12.2872  12.6411  13.8197  14.0533
    14.5134  14.8336  15.5755  15.8842  16.1185  16.5242  16.5760  17.0993

          k =-0.0864 0.1497 0.0000 (  5031 PWs)   bands (ev):

   -90.4034 -90.1353 -90.0662 -90.0498 -53.9051 -53.8789 -53.8694 -53.6446
   -53.6186 -53.5570 -53.5516 -53.5411 -53.5273 -53.5110 -53.4859 -53.4532
   -15.3309  -6.5124  -4.9620  -4.1805  -3.9461  -3.6794  -3.6231  -3.4631
    -3.2999  -3.1649  -2.8756  -2.7739  -2.6051  -2.4696  -2.3734  -2.3008
    -2.2478  -2.0934  -1.9998  -1.8281  -1.7428  -1.4291  -1.3508  -0.9090
    -0.5873   1.7685   2.1043   3.5076   4.8962   5.8578   6.5280   6.8403
     7.7961   8.0955   8.4128   8.7158   9.0519   9.4015   9.6164  10.5761
    10.6963  11.0441  11.1963  11.6417  12.0578  12.3090  12.4976  13.3646
    13.5383  13.7406  14.1108  14.4360  14.8152  15.1595  15.3799  15.4713

          k =-0.0864-0.1497 0.0000 (  5038 PWs)   bands (ev):

   -90.4005 -90.1323 -90.0633 -90.0472 -53.9243 -53.8948 -53.8629 -53.6573
   -53.6237 -53.5941 -53.5579 -53.5516 -53.5504 -53.5281 -53.4710 -53.4642
   -14.8585  -7.1002  -5.1085  -4.0213  -3.6985  -3.6220  -3.4740  -3.4093
    -3.4022  -3.2402  -2.8786  -2.8544  -2.6824  -2.6250  -2.4768  -2.4131
    -2.2718  -2.0512  -1.7520  -1.6085  -1.3718  -1.1842  -0.7189  -0.5829
     1.7994   2.0637   3.5787   4.4372   5.6286   7.6289   8.1384   8.2492
     8.4011   8.4366   8.8597   9.1681   9.5221   9.6329   9.7829   9.9878
    10.6017  10.8571  11.0344  11.4609  11.8373  11.9679  12.3633  12.4640
    12.9445  13.5494  13.6833  13.7207  14.2003  14.4922  14.7533  14.7901

     the Fermi energy is     2.0124 ev

!    total energy              =   -1205.80713556 Ry
     Harris-Foulkes estimate   =   -1205.80712972 Ry
     estimated scf accuracy    <       0.00000029 Ry

     The total energy is the sum of the following terms:

     one-electron contribution =   -6035.16315892 Ry
     hartree contribution      =    3015.69053356 Ry
     xc contribution           =    -123.31713624 Ry
     ewald contribution        =    1936.99018355 Ry
     electric field correction =       0.00029891 Ry
     smearing contrib. (-TS)   =      -0.00785641 Ry

     convergence has been achieved in  14 iterations

     Forces acting on atoms (Ry/au):


     negative rho (up, down):  2.313E-03 0.000E+00
     atom    1 type  1   force =    -0.00225159    0.00211689   -0.01135539
     atom    2 type  1   force =     0.00297491   -0.00163051   -0.01390184
     atom    3 type  1   force =     0.00545899   -0.00765752    0.02414863
     atom    4 type  1   force =    -0.02279109    0.01979675   -0.09714591
     atom    5 type  2   force =    -0.02131164    0.02101435    0.02003056
     atom    6 type  3   force =    -0.00563916    0.03543713    0.06496612
     atom    7 type  3   force =    -0.00024365   -0.05558285    0.02192686
     atom    8 type  3   force =     0.04380324   -0.01349424   -0.00866903

     Total force =     0.154645     Total SCF correction =     0.002951
 !ASE
     Check: negative starting charge=   -0.002395
     NEW-OLD atomic charge density approx. for the potential
     Check: negative starting charge=   -0.002357

     negative rho (up, down):  2.285E-03 0.000E+00
 
     Adding external electric field

     Computed dipole along edir(3) : 
        Dipole                0.2111 Ry au,          0.5365 Debye
        Dipole field          0.0014 Ry au
 
        Potential amp.       -0.1000 Ry
        Total length         35.2972 bohr
 

     total cpu time spent up to now is       27.6 secs

     per-process dynamical memory:    31.3 Mb

     Self-consistent Calculation

     iteration #  1     ecut=    29.40 Ry     beta=0.10
     Davidson diagonalization with overlap
     ethr =  1.71E-09,  avg # of iterations =  6.3

     negative rho (up, down):  2.266E-03 0.000E+00
 
     Adding external electric field

     Computed dipole along edir(3) : 
        Dipole                0.2667 Ry au,          0.6778 Debye
        Dipole field          0.0018 Ry au
 
        Potential amp.       -0.1263 Ry
        Total length         35.2972 bohr
 

     total cpu time spent up to now is       31.0 secs

     total energy              =   -1205.80417716 Ry
     Harris-Foulkes estimate   =   -1205.81423934 Ry
     estimated scf accuracy    <       0.06640227 Ry

     iteration #  2     ecut=    29.40 Ry     beta=0.10
     Davidson diagonalization with overlap
     ethr =  7.91E-05,  avg # of iterations =  2.2

     negative rho (up, down):  2.254E-03 0.000E+00
 
     Adding external electric field

     Computed dipole along edir(3) : 
        Dipole                0.1988 Ry au,          0.5054 Debye
        Dipole field          0.0013 Ry au
 
        Potential amp.       -0.0942 Ry
        Total length         35.2972 bohr
 

     total cpu time spent up to now is       32.5 secs

     total energy              =   -1205.80462578 Ry
     Harris-Foulkes estimate   =   -1205.80850121 Ry
     estimated scf accuracy    <       0.03213676 Ry

     iteration #  3     ecut=    29.40 Ry     beta=0.10
     Davidson diagonalization with overlap
     ethr =  3.83E-05,  avg # of iterations =  2.8

     negative rho (up, down):  2.254E-03 0.000E+00
 
     Adding external electric field

     Computed dipole along edir(3) : 
        Dipole                0.1680 Ry au,          0.4269 Debye
        Dipole field          0.0011 Ry au
 
        Potential amp.       -0.0796 Ry
        Total length         35.2972 bohr
 

     total cpu time spent up to now is       34.1 secs

     total energy              =   -1205.80192351 Ry
     Harris-Foulkes estimate   =   -1205.80587758 Ry
     estimated scf accuracy    <       0.01426259 Ry

     iteration #  4     ecut=    29.40 Ry     beta=0.10
     Davidson diagonalization with overlap
     ethr =  1.70E-05,  avg # of iterations =  3.8

     negative rho (up, down):  2.290E-03 0.000E+00
 
     Adding external electric field

     Computed dipole along edir(3) : 
        Dipole                0.1692 Ry au,          0.4301 Debye
        Dipole field          0.0011 Ry au
 
        Potential amp.       -0.0802 Ry
        Total length         35.2972 bohr
 

     total cpu time spent up to now is       35.9 secs

     total energy              =   -1205.80288679 Ry
     Harris-Foulkes estimate   =   -1205.80325500 Ry
     estimated scf accuracy    <       0.00276209 Ry

     iteration #  5     ecut=    29.40 Ry     beta=0.10
     Davidson diagonalization with overlap
     ethr =  3.29E-06,  avg # of iterations =  3.5

     negative rho (up, down):  2.431E-03 0.000E+00
 
     Adding external electric field

     Computed dipole along edir(3) : 
        Dipole                0.1740 Ry au,          0.4422 Debye
        Dipole field          0.0012 Ry au
 
        Potential amp.       -0.0824 Ry
        Total length         35.2972 bohr
 

     total cpu time spent up to now is       37.6 secs

     total energy              =   -1205.80284005 Ry
     Harris-Foulkes estimate   =   -1205.80299258 Ry
     estimated scf accuracy    <       0.00116657 Ry

     iteration #  6     ecut=    29.40 Ry     beta=0.10
     Davidson diagonalization with overlap
     ethr =  1.39E-06,  avg # of iterations =  3.2

     negative rho (up, down):  2.420E-03 0.000E+00
 
     Adding external electric field

     Computed dipole along edir(3) : 
        Dipole                0.1865 Ry au,          0.4740 Debye
        Dipole field          0.0013 Ry au
 
        Potential amp.       -0.0883 Ry
        Total length         35.2972 bohr
 

     total cpu time spent up to now is       39.3 secs

     total energy              =   -1205.80290259 Ry
     Harris-Foulkes estimate   =   -1205.80293885 Ry
     estimated scf accuracy    <       0.00051343 Ry

     iteration #  7     ecut=    29.40 Ry     beta=0.10
     Davidson diagonalization with overlap
     ethr =  6.11E-07,  avg # of iterations =  3.3

     negative rho (up, down):  2.427E-03 0.000E+00
 
     Adding external electric field

     Computed dipole along edir(3) : 
        Dipole                0.1927 Ry au,          0.4898 Debye
        Dipole field          0.0013 Ry au
 
        Potential amp.       -0.0913 Ry
        Total length         35.2972 bohr
 

     total cpu time spent up to now is       40.9 secs

     total energy              =   -1205.80293870 Ry
     Harris-Foulkes estimate   =   -1205.80293144 Ry
     estimated scf accuracy    <       0.00008417 Ry

     iteration #  8     ecut=    29.40 Ry     beta=0.10
     Davidson diagonalization with overlap
     ethr =  1.00E-07,  avg # of iterations =  2.0

     negative rho (up, down):  2.397E-03 0.000E+00
 
     Adding external electric field

     Computed dipole along edir(3) : 
        Dipole                0.1924 Ry au,          0.4889 Debye
        Dipole field          0.0013 Ry au
 
        Potential amp.       -0.0911 Ry
        Total length         35.2972 bohr
 

     total cpu time spent up to now is       42.4 secs

     total energy              =   -1205.80294822 Ry
     Harris-Foulkes estimate   =   -1205.80294826 Ry
     estimated scf accuracy    <       0.00001006 Ry

     iteration #  9     ecut=    29.40 Ry     beta=0.10
     Davidson diagonalization with overlap
     ethr =  1.20E-08,  avg # of iterations =  1.0

     negative rho (up, down):  2.378E-03 0.000E+00
 
     Adding external electric field

     Computed dipole along edir(3) : 
        Dipole                0.1934 Ry au,          0.4915 Debye
        Dipole field          0.0013 Ry au
 
        Potential amp.       -0.0916 Ry
        Total length         35.2972 bohr
 

     total cpu time spent up to now is       43.7 secs

     total energy              =   -1205.80294912 Ry
     Harris-Foulkes estimate   =   -1205.80294597 Ry
     estimated scf accuracy    <       0.00000483 Ry

     iteration # 10     ecut=    29.40 Ry     beta=0.10
     Davidson diagonalization with overlap
     ethr =  5.75E-09,  avg # of iterations =  2.0

     negative rho (up, down):  2.256E-03 0.000E+00
 
     Adding external electric field

     Computed dipole along edir(3) : 
        Dipole                0.1927 Ry au,          0.4898 Debye
        Dipole field          0.0013 Ry au
 
        Potential amp.       -0.0913 Ry
        Total length         35.2972 bohr
 

     total cpu time spent up to now is       45.2 secs

     End of self-consistent calculation

          k = 0.0000 0.0000 0.0000 (  5071 PWs)   bands (ev):

   -90.4663 -90.2118 -90.1522 -90.1467 -53.9624 -53.9366 -53.8983 -53.7397
   -53.6558 -53.6376 -53.6216 -53.6068 -53.5886 -53.5833 -53.5635 -53.5345
   -14.6256  -5.9016  -5.0920  -4.6568  -4.4899  -4.3665  -4.1048  -3.4683
    -3.0058  -2.9732  -2.9389  -2.8606  -2.8317  -2.7533  -2.6180  -2.0602
    -1.9687  -1.7480  -1.7219  -1.5156  -1.4565  -1.4345  -1.2285  -1.1055
     0.0764   0.5718   1.6361   2.6190   3.3500   4.4368   5.3219   5.6942
     6.4611   6.6558   7.2196   7.7681   8.0145   9.0267   9.3300   9.6858
    10.3219  11.0286  11.0824  11.3218  11.5338  12.3116  12.6084  12.7932
    13.1693  13.7716  13.9056  14.3245  14.9497  15.1058  15.7621  16.3506

          k = 0.0000 0.0998 0.0000 (  5031 PWs)   bands (ev):

   -90.4634 -90.2085 -90.1488 -90.1448 -53.9577 -53.9394 -53.9266 -53.7211
   -53.6937 -53.6436 -53.6337 -53.6229 -53.6109 -53.6053 -53.5728 -53.5353
   -14.1342  -5.7150  -4.7936  -4.1011  -4.0589  -3.7792  -3.6782  -3.4167
    -3.3500  -3.2350  -2.9508  -2.8230  -2.6908  -2.5125  -2.4710  -2.3640
    -2.2517  -2.1829  -2.0006  -1.8965  -1.7175  -1.5275  -1.3853  -0.9829
    -0.8213   1.5312   2.0400   3.4774   4.8253   5.8328   6.5510   6.8414
     7.7410   8.1190   8.3434   8.6421   9.0253   9.3018   9.6392  10.2538
    10.6207  10.7141  11.0500  11.1953  11.7686  12.0887  12.3772  12.9483
    13.2863  13.5858  13.9557  14.2628  14.7378  14.9912  15.3419  15.5011

          k = 0.0000-0.1996 0.0000 (  5048 PWs)   bands (ev):

   -90.4605 -90.2056 -90.1444 -90.1436 -53.9864 -53.9505 -53.9240 -53.7440
   -53.7261 -53.6509 -53.6464 -53.6350 -53.6229 -53.6073 -53.5621 -53.5425
   -13.5168  -6.4740  -4.8992  -4.5253  -4.4155  -4.3393  -4.1013  -3.9222
    -3.7338  -3.3418  -2.9229  -2.7482  -2.5318  -2.1697  -1.8849  -1.6676
    -1.5862  -1.5617  -1.3145  -1.1757  -1.1047  -1.0995  -0.9612  -0.6668
     2.2205   2.4644   3.0975   3.3221   4.9319   5.7682   6.3626   6.5891
     7.7257   8.3205   8.4446   9.5430   9.9765  10.2838  10.6243  10.9036
    11.0351  11.0576  11.1457  11.2317  11.4757  12.1581  12.2702  12.4781
    12.5278  12.6884  12.9496  13.0764  13.4880  13.8176  14.1785  14.3218

          k =-0.0864 0.0499 0.0000 (  5024 PWs)   bands (ev):

   -90.4662 -90.2112 -90.1526 -90.1469 -53.9566 -53.9305 -53.8969 -53.7048
   -53.6514 -53.6509 -53.6448 -53.6172 -53.5923 -53.5852 -53.5632 -53.5330
   -14.6116  -5.6830  -5.0489  -4.1782  -3.9955  -3.8518  -3.7316  -3.3926
    -3.2307  -3.1113  -2.9772  -2.7264  -2.6000  -2.4389  -2.4097  -2.3327
    -2.2534  -2.1786  -2.1196  -1.9687  -1.9073  -1.6666  -1.4057  -1.3977
    -1.1104   0.0756   1.3982   2.1971   3.8665   4.9548   5.7833   6.1120
     6.6691   6.7833   7.0239   7.6181   8.0033   8.2785   8.8307   9.0320
    10.5282  10.8665  11.1308  11.9702  12.1852  12.4389  13.7738  14.0405
    14.4661  14.6908  15.3388  15.5146  15.9950  16.3643  16.4855  16.9789

          k =-0.0864 0.1497 0.0000 (  5031 PWs)   bands (ev):

   -90.4634 -90.2085 -90.1488 -90.1448 -53.9555 -53.9441 -53.9242 -53.7201
   -53.6940 -53.6437 -53.6378 -53.6204 -53.6108 -53.6044 -53.5729 -53.5354
   -14.1342  -5.7269  -4.7923  -4.1471  -3.9411  -3.7123  -3.6782  -3.5187
    -3.3614  -3.2257  -2.9478  -2.8380  -2.6598  -2.5358  -2.4510  -2.3379
    -2.2963  -2.1693  -2.0639  -1.9074  -1.8140  -1.5033  -1.4209  -0.9688
    -0.7008   1.6681   1.9756   3.5677   4.7539   5.7955   6.5209   6.7851
     7.5896   8.0790   8.3381   8.6038   8.9556   9.3113   9.5972  10.3379
    10.6216  10.8993  11.0279  11.2894  11.8393  12.1624  12.2521  13.0307
    13.4485  13.6928  14.0374  14.3191  14.7189  15.0358  15.3774  15.4147

          k =-0.0864-0.1497 0.0000 (  5038 PWs)   bands (ev):

   -90.4605 -90.2056 -90.1445 -90.1437 -53.9837 -53.9473 -53.9207 -53.7328
   -53.6976 -53.6770 -53.6530 -53.6419 -53.6350 -53.6075 -53.5610 -53.5421
   -13.5252  -6.4807  -4.7932  -4.0106  -3.7719  -3.6972  -3.5474  -3.4918
    -3.4854  -3.2925  -2.9581  -2.8979  -2.7588  -2.7038  -2.5451  -2.4863
    -2.3398  -2.1149  -1.8254  -1.6768  -1.4479  -1.2673  -0.8455  -0.5881
     1.7290   1.9649   3.5801   4.3589   5.5584   7.4396   7.8131   8.1357
     8.3049   8.3125   8.7967   9.1279   9.4845   9.5819   9.6941   9.7770
    10.5022  10.8042  10.9744  11.3425  11.5894  11.8944  12.2063  12.3050
    12.8206  13.4437  13.5367  13.6619  14.1835  14.4423  14.6449  14.7140

     the Fermi energy is     1.8990 ev

!    total energy              =   -1205.80295571 Ry
     Harris-Foulkes estimate   =   -1205.80295135 Ry
     estimated scf accuracy    <       0.00000052 Ry

     The total energy is the sum of the following terms:

     one-electron contribution =   -6008.55772082 Ry
     hartree contribution      =    3002.24773548 Ry
     xc contribution           =    -123.10619221 Ry
     ewald contribution        =    1923.62183367 Ry
     electric field correction =       0.00024916 Ry
     smearing contrib. (-TS)   =      -0.00886099 Ry

     convergence has been achieved in  10 iterations

     Forces acting on atoms (Ry/au):


     negative rho (up, down):  2.256E-03 0.000E+00
     atom    1 type  1   force =    -0.00198061    0.00196115   -0.01166140
     atom    2 type  1   force =     0.00256077   -0.00151532   -0.01671248
     atom    3 type  1   force =     0.00491463   -0.00672282    0.02399244
     atom    4 type  1   force =    -0.01595043    0.01367487   -0.06555155
     atom    5 type  2   force =    -0.07555795   -0.07328082    0.12120709
     atom    6 type  3   force =     0.00413395   -0.02510998   -0.08393591
     atom    7 type  3   force =     0.03425847    0.10350455    0.02763324
     atom    8 type  3   force =     0.04762117   -0.01251163    0.00502857

     Total force =     0.233192     Total SCF correction =     0.003471
 !ASE
     Check: negative starting charge=   -0.002357
     NEW-OLD atomic charge density approx. for the potential
     Check: negative starting charge=   -0.002380

     negative rho (up, down):  2.338E-03 0.000E+00
 
     Adding external electric field

     Computed dipole along edir(3) : 
        Dipole                0.1927 Ry au,          0.4898 Debye
        Dipole field          0.0013 Ry au
 
        Potential amp.       -0.0913 Ry
        Total length         35.2972 bohr
 

     total cpu time spent up to now is       46.3 secs

     per-process dynamical memory:    31.3 Mb

     Self-consistent Calculation

     iteration #  1     ecut=    29.40 Ry     beta=0.10
     Davidson diagonalization with overlap
     ethr =  5.75E-09,  avg # of iterations =  6.7

     negative rho (up, down):  2.335E-03 0.000E+00
 
     Adding external electric field

     Computed dipole along edir(3) : 
        Dipole                0.1660 Ry au,          0.4218 Debye
        Dipole field          0.0011 Ry au
 
        Potential amp.       -0.0786 Ry
        Total length         35.2972 bohr
 

     total cpu time spent up to now is       49.6 secs

     total energy              =   -1205.81738292 Ry
     Harris-Foulkes estimate   =   -1205.81988684 Ry
     estimated scf accuracy    <       0.01643556 Ry

     iteration #  2     ecut=    29.40 Ry     beta=0.10
     Davidson diagonalization with overlap
     ethr =  1.96E-05,  avg # of iterations =  2.2

     negative rho (up, down):  2.333E-03 0.000E+00
 
     Adding external electric field

     Computed dipole along edir(3) : 
        Dipole                0.1980 Ry au,          0.5032 Debye
        Dipole field          0.0013 Ry au
 
        Potential amp.       -0.0938 Ry
        Total length         35.2972 bohr
 

     total cpu time spent up to now is       51.1 secs

     total energy              =   -1205.81736612 Ry
     Harris-Foulkes estimate   =   -1205.81817873 Ry
     estimated scf accuracy    <       0.00792177 Ry

     iteration #  3     ecut=    29.40 Ry     beta=0.10
     Davidson diagonalization with overlap
     ethr =  9.43E-06,  avg # of iterations =  3.3

     negative rho (up, down):  2.332E-03 0.000E+00
 
     Adding external electric field

     Computed dipole along edir(3) : 
        Dipole                0.2135 Ry au,          0.5426 Debye
        Dipole field          0.0014 Ry au
 
        Potential amp.       -0.1011 Ry
        Total length         35.2972 bohr
 

     total cpu time spent up to now is       52.8 secs

     total energy              =   -1205.81656395 Ry
     Harris-Foulkes estimate   =   -1205.81758671 Ry
     estimated scf accuracy    <       0.00400395 Ry

     iteration #  4     ecut=    29.40 Ry     beta=0.10
     Davidson diagonalization with overlap
     ethr =  4.77E-06,  avg # of iterations =  3.5

     negative rho (up, down):  2.335E-03 0.000E+00
 
     Adding external electric field

     Computed dipole along edir(3) : 
        Dipole                0.2177 Ry au,          0.5532 Debye
        Dipole field          0.0015 Ry au
 
        Potential amp.       -0.1031 Ry
        Total length         35.2972 bohr
 

     total cpu time spent up to now is       54.5 secs

     total energy              =   -1205.81684799 Ry
     Harris-Foulkes estimate   =   -1205.81693979 Ry
     estimated scf accuracy    <       0.00084025 Ry

     iteration #  5     ecut=    29.40 Ry     beta=0.10
     Davidson diagonalization with overlap
     ethr =  1.00E-06,  avg # of iterations =  2.5

     negative rho (up, down):  2.349E-03 0.000E+00
 
     Adding external electric field

     Computed dipole along edir(3) : 
        Dipole                0.2116 Ry au,          0.5379 Debye
        Dipole field          0.0014 Ry au
 
        Potential amp.       -0.1002 Ry
        Total length         35.2972 bohr
 

     total cpu time spent up to now is       56.0 secs

     total energy              =   -1205.81686523 Ry
     Harris-Foulkes estimate   =   -1205.81690607 Ry
     estimated scf accuracy    <       0.00028473 Ry

     iteration #  6     ecut=    29.40 Ry     beta=0.10
     Davidson diagonalization with overlap
     ethr =  3.39E-07,  avg # of iterations =  2.0

     negative rho (up, down):  2.345E-03 0.000E+00
 
     Adding external electric field

     Computed dipole along edir(3) : 
        Dipole                0.2109 Ry au,          0.5362 Debye
        Dipole field          0.0014 Ry au
 
        Potential amp.       -0.0999 Ry
        Total length         35.2972 bohr
 

     total cpu time spent up to now is       57.5 secs

     total energy              =   -1205.81688189 Ry
     Harris-Foulkes estimate   =   -1205.81688793 Ry
     estimated scf accuracy    <       0.00006996 Ry

     iteration #  7     ecut=    29.40 Ry     beta=0.10
     Davidson diagonalization with overlap
     ethr =  8.33E-08,  avg # of iterations =  1.5

     negative rho (up, down):  2.340E-03 0.000E+00
 
     Adding external electric field

     Computed dipole along edir(3) : 
        Dipole                0.2062 Ry au,          0.5242 Debye
        Dipole field          0.0014 Ry au
 
        Potential amp.       -0.0977 Ry
        Total length         35.2972 bohr
 

     total cpu time spent up to now is       58.8 secs

     total energy              =   -1205.81688528 Ry
     Harris-Foulkes estimate   =   -1205.81690093 Ry
     estimated scf accuracy    <       0.00001815 Ry

     iteration #  8     ecut=    29.40 Ry     beta=0.10
     Davidson diagonalization with overlap
     ethr =  2.16E-08,  avg # of iterations =  2.2

     negative rho (up, down):  2.330E-03 0.000E+00
 
     Adding external electric field

     Computed dipole along edir(3) : 
        Dipole                0.2061 Ry au,          0.5239 Debye
        Dipole field          0.0014 Ry au
 
        Potential amp.       -0.0976 Ry
        Total length         35.2972 bohr
 

     total cpu time spent up to now is       60.3 secs

     total energy              =   -1205.81688752 Ry
     Harris-Foulkes estimate   =   -1205.81688755 Ry
     estimated scf accuracy    <       0.00000214 Ry

     iteration #  9     ecut=    29.40 Ry     beta=0.10
     Davidson diagonalization with overlap
     ethr =  2.55E-09,  avg # of iterations =  1.0

     negative rho (up, down):  2.289E-03 0.000E+00
 
     Adding external electric field

     Computed dipole along edir(3) : 
        Dipole                0.2058 Ry au,          0.5231 Debye
        Dipole field          0.0014 Ry au
 
        Potential amp.       -0.0975 Ry
        Total length         35.2972 bohr
 

     total cpu time spent up to now is       61.6 secs

     End of self-consistent calculation

          k = 0.0000 0.0000 0.0000 (  5071 PWs)   bands (ev):

   -90.4243 -90.1639 -90.0980 -90.0870 -53.9194 -53.9011 -53.8563 -53.6903
   -53.6062 -53.5799 -53.5695 -53.5557 -53.5352 -53.5287 -53.5007 -53.4815
   -15.2307  -6.1872  -5.1957  -4.6429  -4.4428  -4.3217  -4.0694  -3.4709
    -3.0272  -2.9434  -2.9165  -2.8136  -2.7893  -2.7061  -2.5805  -2.0463
    -1.9173  -1.7366  -1.6871  -1.4786  -1.4309  -1.3887  -1.1744  -1.0542
    -0.2281   0.6640   1.6418   2.6802   3.4435   4.4382   5.3149   5.7493
     6.5071   6.6584   7.4352   8.0423   8.5464   9.1953   9.3669   9.7574
    10.3602  11.0444  11.1113  11.3276  11.5604  12.3242  12.6256  12.8032
    13.1988  13.8288  13.9236  14.4341  15.0276  15.1053  15.8057  16.4594

          k = 0.0000 0.0998 0.0000 (  5031 PWs)   bands (ev):

   -90.4214 -90.1607 -90.0952 -90.0845 -53.9174 -53.8954 -53.8909 -53.6719
   -53.6445 -53.5839 -53.5804 -53.5720 -53.5583 -53.5450 -53.5168 -53.4826
   -14.7884  -6.1645  -4.8812  -4.1385  -4.0339  -3.7372  -3.6325  -3.3707
    -3.3123  -3.2045  -2.8999  -2.7787  -2.6467  -2.4650  -2.4289  -2.3223
    -2.2182  -2.1291  -1.9619  -1.8465  -1.6918  -1.4813  -1.3420  -0.9053
    -0.8032   1.5923   2.1248   3.4495   4.9226   5.8758   6.5594   6.8701
     7.8548   8.1437   8.4054   8.6948   9.0771   9.3365   9.6469  10.6310
    10.6624  10.7697  11.1270  11.3098  11.9555  12.2056  12.4147  13.1359
    13.3466  13.6092  14.0067  14.3333  14.7787  15.0473  15.3387  15.5077

          k = 0.0000-0.1996 0.0000 (  5048 PWs)   bands (ev):

   -90.4185 -90.1577 -90.0921 -90.0821 -53.9449 -53.9076 -53.8881 -53.6945
   -53.6761 -53.5979 -53.5844 -53.5775 -53.5705 -53.5563 -53.5039 -53.4923
   -14.2497  -6.8252  -5.0364  -4.5045  -4.3683  -4.3009  -4.0544  -3.8802
    -3.7192  -3.3201  -2.8931  -2.6973  -2.4801  -2.1445  -1.8348  -1.6182
    -1.5365  -1.5129  -1.2648  -1.1203  -1.0525  -1.0457  -0.9108  -0.6116
     2.2800   2.5225   3.1527   3.3792   4.9589   5.8375   6.4086   6.6412
     7.9641   8.4221   8.6648   9.5675   9.9839  10.3193  10.6636  10.9235
    11.0258  11.0790  11.1573  11.2266  11.4880  12.2446  12.3187  12.5026
    12.5494  12.7148  13.0223  13.1532  13.5394  13.8487  14.2160  14.4183

          k =-0.0864 0.0499 0.0000 (  5024 PWs)   bands (ev):

   -90.4242 -90.1634 -90.0985 -90.0870 -53.9176 -53.8917 -53.8550 -53.6565
   -53.6020 -53.5931 -53.5895 -53.5675 -53.5386 -53.5309 -53.5004 -53.4799
   -15.2187  -6.0667  -5.1184  -4.1402  -3.9422  -3.8023  -3.6851  -3.3439
    -3.1888  -3.0946  -2.9262  -2.7756  -2.5620  -2.3955  -2.3596  -2.2883
    -2.2006  -2.1326  -2.0691  -1.9444  -1.8641  -1.6734  -1.4118  -1.3492
    -1.0714  -0.1792   1.4418   2.3452   3.8270   5.1259   5.7922   6.1363
     6.6471   6.7916   7.0691   7.9226   8.2476   8.3513   8.9652   9.2253
    10.5205  10.8839  11.1625  12.0404  12.2509  12.5502  13.8010  14.0486
    14.4960  14.7794  15.5308  15.6772  16.0644  16.4557  16.5388  17.0494

          k =-0.0864 0.1497 0.0000 (  5031 PWs)   bands (ev):

   -90.4214 -90.1607 -90.0952 -90.0845 -53.9164 -53.8997 -53.8876 -53.6709
   -53.6448 -53.5866 -53.5820 -53.5698 -53.5568 -53.5450 -53.5168 -53.4826
   -14.7885  -6.1680  -4.8755  -4.1535  -3.9408  -3.6877  -3.6475  -3.4822
    -3.3205  -3.1861  -2.9004  -2.7952  -2.6226  -2.4918  -2.4000  -2.3078
    -2.2687  -2.1199  -2.0228  -1.8559  -1.7669  -1.4543  -1.3752  -0.9274
    -0.6304   1.7320   2.0553   3.5403   4.8462   5.8355   6.5292   6.8175
     7.7195   8.0881   8.3889   8.6754   9.0178   9.3672   9.6095  10.5217
    10.6728  11.0027  11.1475  11.4789  11.9740  12.2586  12.3550  13.2097
    13.4845  13.7175  14.0736  14.3786  14.7746  15.1034  15.3780  15.4384

          k =-0.0864-0.1497 0.0000 (  5038 PWs)   bands (ev):

   -90.4185 -90.1577 -90.0921 -90.0821 -53.9424 -53.9065 -53.8831 -53.6835
   -53.6493 -53.6236 -53.5910 -53.5823 -53.5817 -53.5572 -53.5029 -53.4919
   -14.2570  -6.8301  -4.9677  -4.0101  -3.7236  -3.6480  -3.4993  -3.4375
    -3.4314  -3.2591  -2.9061  -2.8663  -2.7095  -2.6526  -2.5001  -2.4382
    -2.2950  -2.0727  -1.7772  -1.6318  -1.3981  -1.2133  -0.7623  -0.5906
     1.7758   2.0277   3.5877   4.4098   5.6055   7.6085   7.9908   8.2049
     8.3647   8.3868   8.8349   9.1577   9.5058   9.6175   9.7573   9.8923
    10.5628  10.8362  11.0108  11.4162  11.7280  11.9511  12.3220  12.3791
    12.8920  13.5039  13.6392  13.6766  14.1916  14.4703  14.7415  14.7485

     the Fermi energy is     1.9701 ev

!    total energy              =   -1205.81688983 Ry
     Harris-Foulkes estimate   =   -1205.81688860 Ry
     estimated scf accuracy    <       0.00000067 Ry

     The total energy is the sum of the following terms:

     one-electron contribution =   -6024.04295832 Ry
     hartree contribution      =    3010.09162018 Ry
     xc contribution           =    -123.22294530 Ry
     ewald contribution        =    1931.36534302 Ry
     electric field correction =       0.00028415 Ry
     smearing contrib. (-TS)   =      -0.00823356 Ry

     convergence has been achieved in   9 iterations

     Forces acting on atoms (Ry/au):


     negative rho (up, down):  2.289E-03 0.000E+00
     atom    1 type  1   force =    -0.00202355    0.00193612   -0.01157977
     atom    2 type  1   force =     0.00263506   -0.00146849   -0.01519089
     atom    3 type  1   force =     0.00519312   -0.00727651    0.02435740
     atom    4 type  1   force =    -0.01963041    0.01729160   -0.08291923
     atom    5 type  2   force =    -0.05390219   -0.04137957    0.07426653
     atom    6 type  3   force =    -0.00079925    0.00598615   -0.01152079
     atom    7 type  3   force =     0.02303166    0.03821377    0.02573854
     atom    8 type  3   force =     0.04549555   -0.01330307   -0.00315179

     Total force =     0.154361     Total SCF correction =     0.002723
 !ASE
     Check: negative starting charge=   -0.002380
     NEW-OLD atomic charge density approx. for the potential
     Check: negative starting charge=   -0.002328

     negative rho (up, down):  2.260E-03 0.000E+00
 
     Adding external electric field

     Computed dipole along edir(3) : 
        Dipole                0.2058 Ry au,          0.5231 Debye
        Dipole field          0.0014 Ry au
 
        Potential amp.       -0.0975 Ry
        Total length         35.2972 bohr
 

     total cpu time spent up to now is       62.8 secs

     per-process dynamical memory:    31.3 Mb

     Self-consistent Calculation

     iteration #  1     ecut=    29.40 Ry     beta=0.10
     Davidson diagonalization with overlap
     ethr =  2.55E-09,  avg # of iterations =  7.2

     negative rho (up, down):  2.250E-03 0.000E+00
 
     Adding external electric field

     Computed dipole along edir(3) : 
        Dipole                0.1249 Ry au,          0.3174 Debye
        Dipole field          0.0008 Ry au
 
        Potential amp.       -0.0592 Ry
        Total length         35.2972 bohr
 

     total cpu time spent up to now is       66.4 secs

     total energy              =   -1205.83714954 Ry
     Harris-Foulkes estimate   =   -1205.84184094 Ry
     estimated scf accuracy    <       0.03293883 Ry

     iteration #  2     ecut=    29.40 Ry     beta=0.10
     Davidson diagonalization with overlap
     ethr =  3.92E-05,  avg # of iterations =  3.3

     negative rho (up, down):  2.246E-03 0.000E+00
 
     Adding external electric field

     Computed dipole along edir(3) : 
        Dipole                0.1552 Ry au,          0.3946 Debye
        Dipole field          0.0010 Ry au
 
        Potential amp.       -0.0735 Ry
        Total length         35.2972 bohr
 

     total cpu time spent up to now is       68.1 secs

     total energy              =   -1205.83773018 Ry
     Harris-Foulkes estimate   =   -1205.83919568 Ry
     estimated scf accuracy    <       0.01795918 Ry

     iteration #  3     ecut=    29.40 Ry     beta=0.10
     Davidson diagonalization with overlap
     ethr =  2.14E-05,  avg # of iterations =  2.0

     negative rho (up, down):  2.286E-03 0.000E+00
 
     Adding external electric field

     Computed dipole along edir(3) : 
        Dipole                0.1298 Ry au,          0.3300 Debye
        Dipole field          0.0009 Ry au
 
        Potential amp.       -0.0615 Ry
        Total length         35.2972 bohr
 

     total cpu time spent up to now is       69.6 secs

     total energy              =   -1205.83623383 Ry
     Harris-Foulkes estimate   =   -1205.83829568 Ry
     estimated scf accuracy    <       0.00959027 Ry

     iteration #  4     ecut=    29.40 Ry     beta=0.10
     Davidson diagonalization with overlap
     ethr =  1.14E-05,  avg # of iterations =  3.5

     negative rho (up, down):  2.474E-03 0.000E+00
 
     Adding external electric field

     Computed dipole along edir(3) : 
        Dipole                0.1355 Ry au,          0.3444 Debye
        Dipole field          0.0009 Ry au
 
        Potential amp.       -0.0642 Ry
        Total length         35.2972 bohr
 

     total cpu time spent up to now is       71.4 secs

     total energy              =   -1205.83631764 Ry
     Harris-Foulkes estimate   =   -1205.83679404 Ry
     estimated scf accuracy    <       0.00303018 Ry

     iteration #  5     ecut=    29.40 Ry     beta=0.10
     Davidson diagonalization with overlap
     ethr =  3.61E-06,  avg # of iterations =  2.8

     negative rho (up, down):  2.565E-03 0.000E+00
 
     Adding external electric field

     Computed dipole along edir(3) : 
        Dipole                0.1382 Ry au,          0.3513 Debye
        Dipole field          0.0009 Ry au
 
        Potential amp.       -0.0655 Ry
        Total length         35.2972 bohr
 

     total cpu time spent up to now is       73.0 secs

     total energy              =   -1205.83648671 Ry
     Harris-Foulkes estimate   =   -1205.83659355 Ry
     estimated scf accuracy    <       0.00081469 Ry

     iteration #  6     ecut=    29.40 Ry     beta=0.10
     Davidson diagonalization with overlap
     ethr =  9.70E-07,  avg # of iterations =  3.0

     negative rho (up, down):  2.628E-03 0.000E+00
 
     Adding external electric field

     Computed dipole along edir(3) : 
        Dipole                0.1630 Ry au,          0.4143 Debye
        Dipole field          0.0011 Ry au
 
        Potential amp.       -0.0772 Ry
        Total length         35.2972 bohr
 

     total cpu time spent up to now is       74.6 secs

     total energy              =   -1205.83649216 Ry
     Harris-Foulkes estimate   =   -1205.83660219 Ry
     estimated scf accuracy    <       0.00140366 Ry

     iteration #  7     ecut=    29.40 Ry     beta=0.10
     Davidson diagonalization with overlap
     ethr =  9.70E-07,  avg # of iterations =  4.5

     negative rho (up, down):  2.596E-03 0.000E+00
 
     Adding external electric field

     Computed dipole along edir(3) : 
        Dipole                0.1641 Ry au,          0.4170 Debye
        Dipole field          0.0011 Ry au
 
        Potential amp.       -0.0777 Ry
        Total length         35.2972 bohr
 

     total cpu time spent up to now is       76.5 secs

     total energy              =   -1205.83657577 Ry
     Harris-Foulkes estimate   =   -1205.83657502 Ry
     estimated scf accuracy    <       0.00003157 Ry

     iteration #  8     ecut=    29.40 Ry     beta=0.10
     Davidson diagonalization with overlap
     ethr =  3.76E-08,  avg # of iterations =  2.0

     negative rho (up, down):  2.543E-03 0.000E+00
 
     Adding external electric field

     Computed dipole along edir(3) : 
        Dipole                0.1638 Ry au,          0.4165 Debye
        Dipole field          0.0011 Ry au
 
        Potential amp.       -0.0776 Ry
        Total length         35.2972 bohr
 

     total cpu time spent up to now is       78.0 secs

     total energy              =   -1205.83658255 Ry
     Harris-Foulkes estimate   =   -1205.83657990 Ry
     estimated scf accuracy    <       0.00000635 Ry

     iteration #  9     ecut=    29.40 Ry     beta=0.10
     Davidson diagonalization with overlap
     ethr =  7.56E-09,  avg # of iterations =  1.0

     negative rho (up, down):  2.504E-03 0.000E+00
 
     Adding external electric field

     Computed dipole along edir(3) : 
        Dipole                0.1636 Ry au,          0.4159 Debye
        Dipole field          0.0011 Ry au
 
        Potential amp.       -0.0775 Ry
        Total length         35.2972 bohr
 

     total cpu time spent up to now is       79.3 secs

     total energy              =   -1205.83658454 Ry
     Harris-Foulkes estimate   =   -1205.83658316 Ry
     estimated scf accuracy    <       0.00000370 Ry

     iteration # 10     ecut=    29.40 Ry     beta=0.10
     Davidson diagonalization with overlap
     ethr =  4.41E-09,  avg # of iterations =  2.0

     negative rho (up, down):  2.301E-03 0.000E+00
 
     Adding external electric field

     Computed dipole along edir(3) : 
        Dipole                0.1612 Ry au,          0.4097 Debye
        Dipole field          0.0011 Ry au
 
        Potential amp.       -0.0763 Ry
        Total length         35.2972 bohr
 

     total cpu time spent up to now is       80.8 secs

     End of self-consistent calculation

          k = 0.0000 0.0000 0.0000 (  5071 PWs)   bands (ev):

   -90.5269 -90.2961 -90.2574 -90.2477 -54.0343 -53.9805 -53.9512 -53.8308
   -53.7444 -53.7317 -53.7104 -53.7055 -53.6956 -53.6772 -53.6668 -53.6379
   -14.9032  -6.2174  -5.3289  -4.6877  -4.5707  -4.4336  -4.2209  -3.5749
    -3.1792  -3.0768  -3.0542  -2.9479  -2.9443  -2.8225  -2.6839  -2.1196
    -2.0655  -1.8247  -1.7805  -1.6634  -1.5787  -1.5428  -1.3115  -1.2004
    -0.0011   0.5343   1.6065   2.5378   3.2540   4.5881   5.3376   5.7662
     6.3908   6.6356   7.2338   7.9267   8.6811   9.2446   9.5255   9.9176
    10.4911  10.9992  11.1753  11.4680  11.7057  12.2902  12.6112  12.8530
    13.1830  13.6579  13.8793  14.4926  14.8206  15.2210  15.8247  16.2979

          k = 0.0000 0.0998 0.0000 (  5031 PWs)   bands (ev):

   -90.5239 -90.2927 -90.2549 -90.2453 -54.0258 -54.0043 -53.9617 -53.8119
   -53.7795 -53.7436 -53.7365 -53.7220 -53.7104 -53.6966 -53.6695 -53.6392
   -14.4655  -6.3329  -4.8790  -4.1366  -3.9808  -3.8468  -3.7253  -3.5212
    -3.4419  -3.1923  -3.0304  -2.8898  -2.8141  -2.6006  -2.5502  -2.4817
    -2.3669  -2.2648  -2.0657  -1.9835  -1.8384  -1.6172  -1.4886  -1.0529
    -0.6728   1.3842   1.9017   3.5029   4.7480   5.9709   6.5075   6.9829
     7.7292   8.0841   8.2717   8.6988   8.9306   9.3902   9.6773  10.4702
    10.6707  10.7984  11.0547  11.3186  11.9076  12.3274  12.3914  13.0382
    13.4226  13.6775  13.9632  14.2865  14.8359  14.9722  15.4478  15.5687

          k = 0.0000-0.1996 0.0000 (  5048 PWs)   bands (ev):

   -90.5210 -90.2896 -90.2518 -90.2429 -54.0474 -54.0222 -53.9600 -53.8324
   -53.8210 -53.7489 -53.7487 -53.7294 -53.7266 -53.6926 -53.6562 -53.6502
   -13.9323  -7.0057  -4.8462  -4.5043  -4.4472  -4.3332  -4.1679  -4.0205
    -3.8153  -3.3382  -2.9131  -2.8294  -2.6233  -2.1941  -1.9930  -1.7510
    -1.6809  -1.6571  -1.3848  -1.2673  -1.2009  -1.1914  -0.9080  -0.7991
     2.0957   2.3272   3.0007   3.1952   4.8778   5.6664   6.2595   6.5090
     8.0083   8.2627   8.6273   9.8996  10.0140  10.3226  10.5994  10.8207
    11.0385  11.0692  11.2416  11.3497  11.4749  12.0799  12.2871  12.4963
    12.5936  12.6875  13.0966  13.1619  13.4781  13.7297  14.0420  14.3624

          k =-0.0864 0.0499 0.0000 (  5024 PWs)   bands (ev):

   -90.5267 -90.2953 -90.2583 -90.2478 -54.0254 -53.9769 -53.9488 -53.7893
   -53.7512 -53.7461 -53.7383 -53.7046 -53.7011 -53.6802 -53.6667 -53.6359
   -14.8920  -6.0796  -5.1242  -4.2298  -4.0929  -3.9503  -3.8529  -3.4837
    -3.3211  -3.2165  -3.0660  -2.7105  -2.6843  -2.5603  -2.4946  -2.4245
    -2.3388  -2.2866  -2.2077  -2.0489  -1.9952  -1.8261  -1.6341  -1.5068
    -1.2229   0.0249   1.2626   2.0125   3.9006   5.1031   5.8587   6.2105
     6.6891   6.8946   7.1193   7.9527   8.2184   8.5302   9.0103   9.7342
    10.5984  10.8914  11.1638  11.8791  12.1598  12.6936  13.7361  14.0620
    14.4447  14.5728  15.3536  15.5420  15.9618  16.3465  16.4142  16.8369

          k =-0.0864 0.1497 0.0000 (  5031 PWs)   bands (ev):

   -90.5239 -90.2927 -90.2549 -90.2453 -54.0251 -54.0067 -53.9596 -53.8096
   -53.7812 -53.7470 -53.7372 -53.7188 -53.7105 -53.6963 -53.6695 -53.6392
   -14.4658  -6.3360  -4.8892  -4.1502  -3.9337  -3.7907  -3.6878  -3.6001
    -3.4240  -3.1877  -3.0368  -2.9258  -2.7609  -2.6274  -2.5391  -2.4572
    -2.4088  -2.2554  -2.1109  -2.0003  -1.9065  -1.6005  -1.5141  -1.0766
    -0.5689   1.5004   1.8266   3.5349   4.6934   5.9855   6.4990   6.9318
     7.7081   8.0652   8.2747   8.6815   8.8682   9.3838   9.6720  10.5117
    10.6695  10.8936  11.0954  11.3577  11.8713  12.1084  12.6972  13.0175
    13.5120  13.7805  14.0291  14.4390  14.8122  14.8988  15.4196  15.5306

          k =-0.0864-0.1497 0.0000 (  5038 PWs)   bands (ev):

   -90.5210 -90.2896 -90.2518 -90.2429 -54.0441 -54.0176 -53.9573 -53.8190
   -53.7861 -53.7817 -53.7564 -53.7409 -53.7372 -53.6920 -53.6552 -53.6498
   -13.9389  -7.0115  -4.5908  -3.9490  -3.8397  -3.7786  -3.6185  -3.5893
    -3.5820  -3.2624  -3.0371  -2.9384  -2.8522  -2.7861  -2.6279  -2.5791
    -2.4604  -2.1732  -1.9334  -1.7884  -1.5543  -1.3584  -0.8552  -0.6270
     1.6521   1.8260   3.5507   4.2019   5.5451   7.6693   7.8116   8.0862
     8.1760   8.5419   8.8045   9.0921   9.4882   9.5439   9.8375   9.8966
    10.4467  10.7510  10.9468  11.2939  11.5513  11.8534  12.1033  12.3524
    12.8066  13.3471  13.6697  13.8168  14.1758  14.4795  14.6902  14.8510

     the Fermi energy is     1.7662 ev

!    total energy              =   -1205.83659701 Ry
     Harris-Foulkes estimate   =   -1205.83659031 Ry
     estimated scf accuracy    <       0.00000046 Ry

     The total energy is the sum of the following terms:

     one-electron contribution =   -5971.93017763 Ry
     hartree contribution      =    2983.74345101 Ry
     xc contribution           =    -123.19367660 Ry
     ewald contribution        =    1905.55311003 Ry
     electric field correction =       0.00017429 Ry
     smearing contrib. (-TS)   =      -0.00947811 Ry

     convergence has been achieved in  10 iterations

     Forces acting on atoms (Ry/au):


     negative rho (up, down):  2.301E-03 0.000E+00
     atom    1 type  1   force =    -0.00179814    0.00161287   -0.01292270
     atom    2 type  1   force =     0.00234000   -0.00143533   -0.01703721
     atom    3 type  1   force =     0.00472409   -0.00699461    0.02297449
     atom    4 type  1   force =    -0.00536208    0.01513562   -0.03027098
     atom    5 type  2   force =    -0.03788381   -0.00799869   -0.04989507
     atom    6 type  3   force =    -0.01090217   -0.00965283    0.01426297
     atom    7 type  3   force =     0.00141290    0.03040218    0.05103515
     atom    8 type  3   force =     0.04746922   -0.02106920    0.02185335

     Total force =     0.115558     Total SCF correction =     0.004272
 !ASE
     Check: negative starting charge=   -0.002328
     NEW-OLD atomic charge density approx. for the potential
     Check: negative starting charge=   -0.002288

     negative rho (up, down):  2.258E-03 0.000E+00
 
     Adding external electric field

     Computed dipole along edir(3) : 
        Dipole                0.1612 Ry au,          0.4097 Debye
        Dipole field          0.0011 Ry au
 
        Potential amp.       -0.0763 Ry
        Total length         35.2972 bohr
 

     total cpu time spent up to now is       82.0 secs

     per-process dynamical memory:    31.3 Mb

     Self-consistent Calculation

     iteration #  1     ecut=    29.40 Ry     beta=0.10
     Davidson diagonalization with overlap
     ethr =  4.41E-09,  avg # of iterations =  9.5

     negative rho (up, down):  2.251E-03 0.000E+00
 
     Adding external electric field

     Computed dipole along edir(3) : 
        Dipole                0.1408 Ry au,          0.3578 Debye
        Dipole field          0.0009 Ry au
 
        Potential amp.       -0.0667 Ry
        Total length         35.2972 bohr
 

     total cpu time spent up to now is       85.7 secs

     total energy              =   -1205.80957028 Ry
     Harris-Foulkes estimate   =   -1205.81100856 Ry
     estimated scf accuracy    <       0.01529209 Ry

     iteration #  2     ecut=    29.40 Ry     beta=0.10
     Davidson diagonalization with overlap
     ethr =  1.82E-05,  avg # of iterations =  1.8

     negative rho (up, down):  2.246E-03 0.000E+00
 
     Adding external electric field

     Computed dipole along edir(3) : 
        Dipole                0.1571 Ry au,          0.3993 Debye
        Dipole field          0.0011 Ry au
 
        Potential amp.       -0.0744 Ry
        Total length         35.2972 bohr
 

     total cpu time spent up to now is       87.1 secs

     total energy              =   -1205.80864375 Ry
     Harris-Foulkes estimate   =   -1205.80972837 Ry
     estimated scf accuracy    <       0.01101026 Ry

     iteration #  3     ecut=    29.40 Ry     beta=0.10
     Davidson diagonalization with overlap
     ethr =  1.31E-05,  avg # of iterations =  1.0

     negative rho (up, down):  2.339E-03 0.000E+00
 
     Adding external electric field

     Computed dipole along edir(3) : 
        Dipole                0.1457 Ry au,          0.3704 Debye
        Dipole field          0.0010 Ry au
 
        Potential amp.       -0.0690 Ry
        Total length         35.2972 bohr
 

     total cpu time spent up to now is       88.4 secs

     total energy              =   -1205.80628046 Ry
     Harris-Foulkes estimate   =   -1205.80882065 Ry
     estimated scf accuracy    <       0.00790430 Ry

     iteration #  4     ecut=    29.40 Ry     beta=0.10
     Davidson diagonalization with overlap
     ethr =  9.41E-06,  avg # of iterations =  2.0

     negative rho (up, down):  2.366E-03 0.000E+00
 
     Adding external electric field

     Computed dipole along edir(3) : 
        Dipole                0.1513 Ry au,          0.3845 Debye
        Dipole field          0.0010 Ry au
 
        Potential amp.       -0.0717 Ry
        Total length         35.2972 bohr
 

     total cpu time spent up to now is       89.9 secs

     total energy              =   -1205.80699587 Ry
     Harris-Foulkes estimate   =   -1205.80703391 Ry
     estimated scf accuracy    <       0.00078867 Ry

     iteration #  5     ecut=    29.40 Ry     beta=0.10
     Davidson diagonalization with overlap
     ethr =  9.39E-07,  avg # of iterations =  3.0

     negative rho (up, down):  2.389E-03 0.000E+00
 
     Adding external electric field

     Computed dipole along edir(3) : 
        Dipole                0.1548 Ry au,          0.3936 Debye
        Dipole field          0.0010 Ry au
 
        Potential amp.       -0.0733 Ry
        Total length         35.2972 bohr
 

     total cpu time spent up to now is       91.5 secs

     total energy              =   -1205.80703375 Ry
     Harris-Foulkes estimate   =   -1205.80703180 Ry
     estimated scf accuracy    <       0.00026272 Ry

     iteration #  6     ecut=    29.40 Ry     beta=0.10
     Davidson diagonalization with overlap
     ethr =  3.13E-07,  avg # of iterations =  2.0

     negative rho (up, down):  2.374E-03 0.000E+00
 
     Adding external electric field

     Computed dipole along edir(3) : 
        Dipole                0.1614 Ry au,          0.4102 Debye
        Dipole field          0.0011 Ry au
 
        Potential amp.       -0.0764 Ry
        Total length         35.2972 bohr
 

     total cpu time spent up to now is       93.0 secs

     total energy              =   -1205.80703722 Ry
     Harris-Foulkes estimate   =   -1205.80703954 Ry
     estimated scf accuracy    <       0.00010366 Ry

     iteration #  7     ecut=    29.40 Ry     beta=0.10
     Davidson diagonalization with overlap
     ethr =  1.23E-07,  avg # of iterations =  3.2

     negative rho (up, down):  2.363E-03 0.000E+00
 
     Adding external electric field

     Computed dipole along edir(3) : 
        Dipole                0.1598 Ry au,          0.4062 Debye
        Dipole field          0.0011 Ry au
 
        Potential amp.       -0.0757 Ry
        Total length         35.2972 bohr
 

     total cpu time spent up to now is       94.6 secs

     total energy              =   -1205.80705219 Ry
     Harris-Foulkes estimate   =   -1205.80705781 Ry
     estimated scf accuracy    <       0.00007612 Ry

     iteration #  8     ecut=    29.40 Ry     beta=0.10
     Davidson diagonalization with overlap
     ethr =  9.06E-08,  avg # of iterations =  1.0

     negative rho (up, down):  2.344E-03 0.000E+00
 
     Adding external electric field

     Computed dipole along edir(3) : 
        Dipole                0.1591 Ry au,          0.4045 Debye
        Dipole field          0.0011 Ry au
 
        Potential amp.       -0.0754 Ry
        Total length         35.2972 bohr
 

     total cpu time spent up to now is       95.9 secs

     total energy              =   -1205.80705849 Ry
     Harris-Foulkes estimate   =   -1205.80705746 Ry
     estimated scf accuracy    <       0.00000666 Ry

     iteration #  9     ecut=    29.40 Ry     beta=0.10
     Davidson diagonalization with overlap
     ethr =  7.93E-09,  avg # of iterations =  2.0

     negative rho (up, down):  2.251E-03 0.000E+00
 
     Adding external electric field

     Computed dipole along edir(3) : 
        Dipole                0.1590 Ry au,          0.4042 Debye
        Dipole field          0.0011 Ry au
 
        Potential amp.       -0.0753 Ry
        Total length         35.2972 bohr
 

     total cpu time spent up to now is       97.3 secs

     End of self-consistent calculation

          k = 0.0000 0.0000 0.0000 (  5071 PWs)   bands (ev):

   -90.5795 -90.3083 -90.2822 -90.2473 -54.0980 -54.0201 -53.9931 -53.8468
   -53.7596 -53.7330 -53.7283 -53.7200 -53.7180 -53.6895 -53.6707 -53.6488
   -14.9277  -5.7192  -5.2888  -4.6819  -4.5881  -4.4401  -4.2634  -3.7370
    -3.3079  -3.0966  -3.0709  -2.9645  -2.9625  -2.8366  -2.7027  -2.1570
    -2.0978  -1.9054  -1.7687  -1.7197  -1.6019  -1.5562  -1.3275  -1.2179
    -0.1095   0.4016   1.6015   2.5373   3.2120   4.5200   5.3360   5.7346
     6.3750   6.6916   7.1415   7.7626   8.6439   9.2451   9.6367  10.2115
    10.5983  10.9829  11.1158  11.4523  11.8587  12.3305  12.6182  12.8339
    13.0957  13.5907  13.8565  14.3384  14.7874  15.2252  15.7274  16.4445

          k = 0.0000 0.0998 0.0000 (  5031 PWs)   bands (ev):

   -90.5766 -90.3045 -90.2803 -90.2446 -54.0902 -54.0443 -54.0038 -53.8284
   -53.7916 -53.7661 -53.7445 -53.7349 -53.7181 -53.7063 -53.6828 -53.6494
   -14.5245  -5.7531  -5.0506  -4.1553  -4.0023  -3.8740  -3.7566  -3.5410
    -3.4656  -3.1819  -3.0342  -2.9188  -2.8540  -2.6263  -2.5947  -2.5347
    -2.4053  -2.2797  -2.0871  -1.9962  -1.8874  -1.6328  -1.5168  -1.0857
    -0.5629   1.3580   1.8748   3.5467   4.6672   5.7558   6.5434   6.8575
     7.5532   8.0601   8.2464   8.6158   8.8318   9.3455   9.6360  10.4634
    10.6513  10.8487  11.1510  11.4625  11.7865  12.1124  12.4528  13.1309
    13.4745  13.6953  14.0085  14.3644  14.8213  14.9886  15.4395  15.5506

          k = 0.0000-0.1996 0.0000 (  5048 PWs)   bands (ev):

   -90.5737 -90.3013 -90.2776 -90.2419 -54.0909 -54.0827 -54.0018 -53.8488
   -53.8390 -53.7639 -53.7560 -53.7472 -53.7308 -53.7026 -53.6755 -53.6559
   -14.0435  -6.5879  -4.8960  -4.5206  -4.4551  -4.2949  -4.1730  -4.0432
    -3.8837  -3.3178  -2.9871  -2.8535  -2.6374  -2.1694  -2.0177  -1.7592
    -1.6948  -1.6616  -1.4110  -1.2799  -1.2214  -1.2037  -0.8075  -0.7225
     2.0424   2.2950   2.9779   3.1675   4.8205   5.7871   6.2309   6.4717
     7.3792   8.1785   8.3757   9.7253   9.9733  10.2750  10.6167  10.8018
    11.0326  11.0542  11.2013  11.3308  11.4515  12.1378  12.3018  12.4961
    12.5666  12.6646  13.0819  13.1764  13.4489  13.6748  14.0393  14.3521

          k =-0.0864 0.0499 0.0000 (  5024 PWs)   bands (ev):

   -90.5794 -90.3070 -90.2836 -90.2473 -54.0914 -54.0169 -53.9906 -53.8000
   -53.7757 -53.7517 -53.7455 -53.7255 -53.7157 -53.6940 -53.6706 -53.6465
   -14.9174  -5.3919  -5.2661  -4.2461  -4.1148  -3.9588  -3.8730  -3.5105
    -3.3809  -3.2718  -3.0736  -2.7730  -2.6938  -2.6128  -2.5201  -2.4489
    -2.3622  -2.3274  -2.2151  -2.0814  -2.0412  -1.9610  -1.6639  -1.5193
    -1.2626  -0.1848   1.2658   1.9205   3.9475   4.8777   5.7106   6.1900
     6.6943   6.8649   7.1047   7.9749   8.2044   8.6323   9.0047  10.4744
    10.7185  10.9111  11.2878  11.8779  12.1746  12.4253  13.7102  14.0601
    14.3787  14.6550  15.0608  15.3675  15.9101  16.3183  16.3544  16.9117

          k =-0.0864 0.1497 0.0000 (  5031 PWs)   bands (ev):

   -90.5766 -90.3045 -90.2803 -90.2446 -54.0909 -54.0453 -54.0018 -53.8243
   -53.7957 -53.7708 -53.7413 -53.7342 -53.7178 -53.7062 -53.6827 -53.6494
   -14.5249  -5.7439  -5.0701  -4.1643  -3.9484  -3.8324  -3.7550  -3.6029
    -3.4436  -3.1653  -3.0453  -2.9600  -2.7980  -2.6615  -2.5670  -2.5491
    -2.4229  -2.2759  -2.1152  -2.0139  -1.9285  -1.6234  -1.5298  -1.0918
    -0.5033   1.4683   1.7937   3.5405   4.6116   5.8165   6.5637   6.8065
     7.6166   8.0583   8.2571   8.5167   8.8079   9.3997   9.6391  10.4292
    10.7068  10.8367  11.0010  11.6462  11.7567  12.0812  12.5850  13.1230
    13.6595  13.7418  14.0423  14.4014  14.7498  14.8824  15.4038  15.4815

          k =-0.0864-0.1497 0.0000 (  5038 PWs)   bands (ev):

   -90.5737 -90.3013 -90.2777 -90.2419 -54.0875 -54.0799 -53.9990 -53.8332
   -53.8103 -53.7923 -53.7687 -53.7574 -53.7363 -53.7018 -53.6752 -53.6551
   -14.0497  -6.5855  -4.6519  -3.9506  -3.8566  -3.7862  -3.6334  -3.6130
    -3.6062  -3.2249  -3.0803  -2.9454  -2.8483  -2.7840  -2.6663  -2.5993
    -2.5279  -2.1789  -1.9562  -1.8058  -1.5800  -1.3644  -0.8182  -0.4823
     1.6603   1.7703   3.5568   4.1513   5.5577   6.9713   7.8203   8.1000
     8.1365   8.4829   8.7279   9.0602   9.5235   9.5377   9.7983  10.0197
    10.4137  10.7522  10.8917  11.2381  11.5154  11.8061  12.1108  12.3088
    12.7490  13.2041  13.6108  13.6649  14.1989  14.4190  14.6276  14.8482

     the Fermi energy is     1.7354 ev

!    total energy              =   -1205.80707303 Ry
     Harris-Foulkes estimate   =   -1205.80705920 Ry
     estimated scf accuracy    <       0.00000067 Ry

     The total energy is the sum of the following terms:

     one-electron contribution =   -5952.09006155 Ry
     hartree contribution      =    2973.79199151 Ry
     xc contribution           =    -123.18004810 Ry
     ewald contribution        =    1895.68092803 Ry
     electric field correction =       0.00016970 Ry
     smearing contrib. (-TS)   =      -0.01005263 Ry

     convergence has been achieved in   9 iterations

     Forces acting on atoms (Ry/au):


     negative rho (up, down):  2.251E-03 0.000E+00
     atom    1 type  1   force =    -0.00194994    0.00137481   -0.01317787
     atom    2 type  1   force =     0.00253016   -0.00141816   -0.01670418
     atom    3 type  1   force =     0.00481367   -0.00666660    0.02294693
     atom    4 type  1   force =    -0.00188386    0.01034765   -0.01890929
     atom    5 type  2   force =     0.00285278    0.32447964    0.08363445
     atom    6 type  3   force =     0.01065115   -0.07827063   -0.12360256
     atom    7 type  3   force =    -0.05594342   -0.22132787    0.03618862
     atom    8 type  3   force =     0.03892945   -0.02851884    0.02962390

     Total force =     0.438142     Total SCF correction =     0.003752
 !ASE
     Check: negative starting charge=   -0.002288
     NEW-OLD atomic charge density approx. for the potential
     Check: negative starting charge=   -0.002317

     negative rho (up, down):  2.363E-03 0.000E+00
 
     Adding external electric field

     Computed dipole along edir(3) : 
        Dipole                0.1590 Ry au,          0.4042 Debye
        Dipole field          0.0011 Ry au
 
        Potential amp.       -0.0753 Ry
        Total length         35.2972 bohr
 

     total cpu time spent up to now is       98.5 secs

     per-process dynamical memory:    31.3 Mb

     Self-consistent Calculation

     iteration #  1     ecut=    29.40 Ry     beta=0.10
     Davidson diagonalization with overlap
     ethr =  7.93E-09,  avg # of iterations =  9.2

     negative rho (up, down):  2.351E-03 0.000E+00
 
     Adding external electric field

     Computed dipole along edir(3) : 
        Dipole                0.1752 Ry au,          0.4453 Debye
        Dipole field          0.0012 Ry au
 
        Potential amp.       -0.0830 Ry
        Total length         35.2972 bohr
 

     total cpu time spent up to now is      102.1 secs

     total energy              =   -1205.84090514 Ry
     Harris-Foulkes estimate   =   -1205.84162257 Ry
     estimated scf accuracy    <       0.00878228 Ry

     iteration #  2     ecut=    29.40 Ry     beta=0.10
     Davidson diagonalization with overlap
     ethr =  1.05E-05,  avg # of iterations =  1.5

     negative rho (up, down):  2.339E-03 0.000E+00
 
     Adding external electric field

     Computed dipole along edir(3) : 
        Dipole                0.1636 Ry au,          0.4158 Debye
        Dipole field          0.0011 Ry au
 
        Potential amp.       -0.0775 Ry
        Total length         35.2972 bohr
 

     total cpu time spent up to now is      103.5 secs

     total energy              =   -1205.84041293 Ry
     Harris-Foulkes estimate   =   -1205.84103643 Ry
     estimated scf accuracy    <       0.00642358 Ry

     iteration #  3     ecut=    29.40 Ry     beta=0.10
     Davidson diagonalization with overlap
     ethr =  7.65E-06,  avg # of iterations =  1.0

     negative rho (up, down):  2.388E-03 0.000E+00
 
     Adding external electric field

     Computed dipole along edir(3) : 
        Dipole                0.1760 Ry au,          0.4473 Debye
        Dipole field          0.0012 Ry au
 
        Potential amp.       -0.0834 Ry
        Total length         35.2972 bohr
 

     total cpu time spent up to now is      104.8 secs

     total energy              =   -1205.83919600 Ry
     Harris-Foulkes estimate   =   -1205.84047536 Ry
     estimated scf accuracy    <       0.00466938 Ry

     iteration #  4     ecut=    29.40 Ry     beta=0.10
     Davidson diagonalization with overlap
     ethr =  5.56E-06,  avg # of iterations =  3.5

     negative rho (up, down):  2.394E-03 0.000E+00
 
     Adding external electric field

     Computed dipole along edir(3) : 
        Dipole                0.1718 Ry au,          0.4366 Debye
        Dipole field          0.0012 Ry au
 
        Potential amp.       -0.0814 Ry
        Total length         35.2972 bohr
 

     total cpu time spent up to now is      106.5 secs

     total energy              =   -1205.83966448 Ry
     Harris-Foulkes estimate   =   -1205.83967265 Ry
     estimated scf accuracy    <       0.00041236 Ry

     iteration #  5     ecut=    29.40 Ry     beta=0.10
     Davidson diagonalization with overlap
     ethr =  4.91E-07,  avg # of iterations =  1.7

     negative rho (up, down):  2.400E-03 0.000E+00
 
     Adding external electric field

     Computed dipole along edir(3) : 
        Dipole                0.1643 Ry au,          0.4176 Debye
        Dipole field          0.0011 Ry au
 
        Potential amp.       -0.0778 Ry
        Total length         35.2972 bohr
 

     total cpu time spent up to now is      107.9 secs

     total energy              =   -1205.83968431 Ry
     Harris-Foulkes estimate   =   -1205.83969862 Ry
     estimated scf accuracy    <       0.00014589 Ry

     iteration #  6     ecut=    29.40 Ry     beta=0.10
     Davidson diagonalization with overlap
     ethr =  1.74E-07,  avg # of iterations =  3.0

     negative rho (up, down):  2.393E-03 0.000E+00
 
     Adding external electric field

     Computed dipole along edir(3) : 
        Dipole                0.1646 Ry au,          0.4183 Debye
        Dipole field          0.0011 Ry au
 
        Potential amp.       -0.0779 Ry
        Total length         35.2972 bohr
 

     total cpu time spent up to now is      109.4 secs

     total energy              =   -1205.83969437 Ry
     Harris-Foulkes estimate   =   -1205.83969305 Ry
     estimated scf accuracy    <       0.00003823 Ry

     iteration #  7     ecut=    29.40 Ry     beta=0.10
     Davidson diagonalization with overlap
     ethr =  4.55E-08,  avg # of iterations =  2.0

     negative rho (up, down):  2.377E-03 0.000E+00
 
     Adding external electric field

[...]

     Computed dipole along edir(3) : 
        Dipole               -0.1544 Ry au,         -0.3923 Debye
        Dipole field         -0.0010 Ry au
 
        Potential amp.        0.0731 Ry
        Total length         35.2972 bohr
 

     total cpu time spent up to now is      674.3 secs

     total energy              =   -1205.87276116 Ry
     Harris-Foulkes estimate   =   -1205.87279245 Ry
     estimated scf accuracy    <       0.00068093 Ry

     iteration #  3     ecut=    29.40 Ry     beta=0.10
     Davidson diagonalization with overlap
     ethr =  2.00E-07,  avg # of iterations =  1.0

     negative rho (up, down):  2.107E-03 0.000E+00
 
     Adding external electric field

     Computed dipole along edir(3) : 
        Dipole               -0.1546 Ry au,         -0.3931 Debye
        Dipole field         -0.0010 Ry au
 
        Potential amp.        0.0732 Ry
        Total length         35.2972 bohr
 

     total cpu time spent up to now is      675.6 secs

     total energy              =   -1205.87278152 Ry
     Harris-Foulkes estimate   =   -1205.87278109 Ry
     estimated scf accuracy    <       0.00000112 Ry

     iteration #  4     ecut=    29.40 Ry     beta=0.10
     Davidson diagonalization with overlap
     ethr =  1.34E-09,  avg # of iterations =  1.2

     negative rho (up, down):  2.107E-03 0.000E+00
 
     Adding external electric field

     Computed dipole along edir(3) : 
        Dipole               -0.1501 Ry au,         -0.3816 Debye
        Dipole field         -0.0010 Ry au
 
        Potential amp.        0.0711 Ry
        Total length         35.2972 bohr
 

     total cpu time spent up to now is      677.0 secs

     End of self-consistent calculation

          k = 0.0000 0.0000 0.0000 (  5071 PWs)   bands (ev):

   -91.3670 -91.1334 -91.1144 -91.0591 -54.8418 -54.8240 -54.7799 -54.6764
   -54.5913 -54.5593 -54.5582 -54.5492 -54.5337 -54.5099 -54.5072 -54.4417
   -14.2946  -6.0543  -5.3840  -5.2732  -5.1211  -4.8891  -4.5662  -4.3070
    -4.0111  -3.8820  -3.8712  -3.7898  -3.7803  -3.5058  -3.3464  -2.9147
    -2.9037  -2.7347  -2.5423  -2.4024  -2.3759  -2.3227  -2.1387  -2.0474
    -0.6928   0.5652   1.4229   1.4454   2.3011   4.1379   5.0810   5.3192
     5.4659   6.5936   7.0680   7.3796   8.7921   9.3865   9.6569  10.2638
    10.4978  11.0356  11.4177  11.4782  11.8293  12.3534  12.6220  12.8518
    12.9272  13.0301  13.9410  14.3810  14.6988  15.5452  15.8507  16.0462

          k = 0.0000 0.0998 0.0000 (  5031 PWs)   bands (ev):

   -91.3641 -91.1292 -91.1129 -91.0564 -54.8357 -54.8207 -54.8150 -54.6568
   -54.6215 -54.6086 -54.5746 -54.5572 -54.5497 -54.5241 -54.5021 -54.4411
   -13.9121  -5.0770  -4.8659  -4.7105  -4.6191  -4.5887  -4.5004  -4.3647
    -4.0970  -3.8604  -3.7499  -3.6413  -3.5116  -3.4190  -3.3761  -3.3295
    -3.1668  -3.0866  -2.8514  -2.7937  -2.6395  -2.4125  -2.3104  -1.9034
    -0.8807   0.4240   0.8796   2.8543   3.6010   5.7081   6.5781   6.8560
     7.3068   7.7048   8.0935   8.3168   8.8309   9.7495  10.0766  10.1504
    10.6405  10.6748  10.8776  11.0219  11.4927  11.7994  12.6046  12.9387
    13.2977  13.4984  13.8301  13.9904  14.3479  14.8499  15.0746  15.4206

          k = 0.0000-0.1996 0.0000 (  5048 PWs)   bands (ev):

   -91.3612 -91.1258 -91.1105 -91.0537 -54.8665 -54.8298 -54.8134 -54.6778
   -54.6760 -54.5942 -54.5936 -54.5820 -54.5489 -54.5197 -54.4974 -54.4430
   -13.4629  -5.2937  -5.2696  -5.2146  -5.1105  -5.0994  -4.9299  -4.8863
    -4.2001  -4.0892  -3.6244  -3.4688  -3.4442  -2.8060  -2.6260  -2.5417
    -2.4922  -2.4593  -2.1911  -2.1066  -2.0819  -2.0536  -2.0304  -0.8538
     1.4009   1.4382   2.2994   2.3049   3.2988   5.2987   5.4364   5.7009
     7.1837   7.9618   9.4000   9.5709   9.6135  10.1793  10.5024  10.6018
    11.0810  11.1437  11.5027  11.5746  11.8024  11.9713  12.2535  12.3827
    12.7055  12.7428  12.8608  12.9055  13.0635  13.2669  13.5906  14.3443

          k =-0.0864 0.0499 0.0000 (  5024 PWs)   bands (ev):

   -91.3669 -91.1315 -91.1163 -91.0592 -54.8346 -54.8180 -54.7784 -54.6250
   -54.6119 -54.5799 -54.5686 -54.5641 -54.5293 -54.5109 -54.5099 -54.4401
   -14.2866  -5.1661  -5.0317  -4.8688  -4.7581  -4.5004  -4.4476  -4.3241
    -4.2359  -3.8935  -3.6080  -3.4972  -3.4492  -3.3915  -3.3189  -3.2659
    -3.1586  -3.1379  -3.0431  -2.8709  -2.8117  -2.7256  -2.4735  -2.3398
    -2.0309   0.1006   0.2603   0.6551   3.0193   3.8520   6.2711   6.5721
     6.7413   7.1563   7.9528   8.1697   8.2629   8.6578   9.3881  10.2784
    10.7467  10.8856  10.9743  11.0903  11.7617  12.0372  13.3304  13.5999
    14.0012  14.2170  14.6594  15.1276  15.3611  15.5235  15.8568  16.4033

          k =-0.0864 0.1497 0.0000 (  5031 PWs)   bands (ev):

   -91.3641 -91.1292 -91.1129 -91.0564 -54.8332 -54.8260 -54.8123 -54.6567
   -54.6218 -54.6085 -54.5746 -54.5573 -54.5496 -54.5241 -54.5021 -54.4411
   -13.9124  -5.0702  -4.8642  -4.7087  -4.6326  -4.5646  -4.5013  -4.3777
    -4.0759  -3.8571  -3.7847  -3.6257  -3.5039  -3.4333  -3.3706  -3.3381
    -3.1577  -3.0874  -2.8528  -2.7930  -2.6425  -2.4114  -2.3151  -1.8952
    -0.9176   0.4317   0.8781   2.8553   3.6109   5.6810   6.5918   6.8690
     7.3011   7.7389   8.0877   8.3167   8.8443   9.7421  10.0537  10.1977
    10.6373  10.7055  10.8472  11.0319  11.6002  11.8310  12.3511  12.9818
    13.2929  13.5359  13.8713  13.9699  14.3468  14.8495  15.1939  15.4029

          k =-0.0864-0.1497 0.0000 (  5038 PWs)   bands (ev):

   -91.3612 -91.1258 -91.1105 -91.0537 -54.8633 -54.8255 -54.8098 -54.6610
   -54.6526 -54.6176 -54.6064 -54.5950 -54.5548 -54.5184 -54.4968 -54.4424
   -13.4678  -5.2011  -4.7994  -4.7421  -4.6119  -4.5761  -4.4362  -4.4310
    -3.9109  -3.8718  -3.7964  -3.6725  -3.6530  -3.5689  -3.4182  -3.3686
    -3.2517  -2.8335  -2.7668  -2.6020  -2.3597  -2.1799  -2.0159  -0.8906
     0.8784   0.8956   2.7466   3.3533   4.9970   7.0721   7.3090   7.4077
     7.6466   7.8351   8.7815   8.8048   9.3995   9.7784   9.9247  10.0134
    10.2579  10.3971  10.6879  10.9481  11.1732  11.3762  11.5326  11.8317
    12.6508  12.9919  13.3929  13.5388  13.6672  13.8270  13.9323  14.7492

     the Fermi energy is     0.8320 ev

!    total energy              =   -1205.87278107 Ry
     Harris-Foulkes estimate   =   -1205.87279080 Ry
     estimated scf accuracy    <       0.00000079 Ry

     The total energy is the sum of the following terms:

     one-electron contribution =   -5610.95018718 Ry
     hartree contribution      =    2801.51573854 Ry
     xc contribution           =    -123.05576188 Ry
     ewald contribution        =    1726.62661816 Ry
     electric field correction =       0.00015125 Ry
     smearing contrib. (-TS)   =      -0.00933995 Ry

     convergence has been achieved in   4 iterations

     Forces acting on atoms (Ry/au):


     negative rho (up, down):  2.107E-03 0.000E+00
     atom    1 type  1   force =    -0.00091348    0.00054836   -0.02308945
     atom    2 type  1   force =     0.00094002   -0.00051106   -0.02480240
     atom    3 type  1   force =    -0.00007827   -0.00017506    0.02269190
     atom    4 type  1   force =    -0.00042140    0.00009225    0.02548407
     atom    5 type  2   force =    -0.00938695    0.00057979   -0.12331465
     atom    6 type  3   force =     0.00067986   -0.00035000   -0.00007830
     atom    7 type  3   force =     0.00012921    0.00008289   -0.00015729
     atom    8 type  3   force =     0.00905100   -0.00026715    0.12326611

     Total force =     0.181348     Total SCF correction =     0.005338
 !ASE
     Check: negative starting charge=   -0.002047
     NEW-OLD atomic charge density approx. for the potential
     Check: negative starting charge=   -0.002048

     negative rho (up, down):  2.108E-03 0.000E+00
 
     Adding external electric field

     Computed dipole along edir(3) : 
        Dipole               -0.1501 Ry au,         -0.3816 Debye
        Dipole field         -0.0010 Ry au
 
        Potential amp.        0.0711 Ry
        Total length         35.2972 bohr
 

     total cpu time spent up to now is      678.2 secs

     per-process dynamical memory:    31.3 Mb

     Self-consistent Calculation

     iteration #  1     ecut=    29.40 Ry     beta=0.10
     Davidson diagonalization with overlap
     ethr =  1.34E-09,  avg # of iterations =  3.0

     negative rho (up, down):  2.108E-03 0.000E+00
 
     Adding external electric field

     Computed dipole along edir(3) : 
        Dipole               -0.1634 Ry au,         -0.4153 Debye
        Dipole field         -0.0011 Ry au
 
        Potential amp.        0.0774 Ry
        Total length         35.2972 bohr
 

     total cpu time spent up to now is      680.3 secs

     total energy              =   -1205.87272394 Ry
     Harris-Foulkes estimate   =   -1205.87276648 Ry
     estimated scf accuracy    <       0.00037897 Ry

     iteration #  2     ecut=    29.40 Ry     beta=0.10
     Davidson diagonalization with overlap
     ethr =  4.51E-07,  avg # of iterations =  2.3

     negative rho (up, down):  2.108E-03 0.000E+00
 
     Adding external electric field

     Computed dipole along edir(3) : 
        Dipole               -0.1542 Ry au,         -0.3919 Debye
        Dipole field         -0.0010 Ry au
 
        Potential amp.        0.0730 Ry
        Total length         35.2972 bohr
 

     total cpu time spent up to now is      681.8 secs

     total energy              =   -1205.87272417 Ry
     Harris-Foulkes estimate   =   -1205.87285449 Ry
     estimated scf accuracy    <       0.00184012 Ry

     iteration #  3     ecut=    29.40 Ry     beta=0.10
     Davidson diagonalization with overlap
     ethr =  4.51E-07,  avg # of iterations =  1.5

     negative rho (up, down):  2.108E-03 0.000E+00
 
     Adding external electric field

     Computed dipole along edir(3) : 
        Dipole               -0.1544 Ry au,         -0.3924 Debye
        Dipole field         -0.0010 Ry au
 
        Potential amp.        0.0731 Ry
        Total length         35.2972 bohr
 

     total cpu time spent up to now is      683.1 secs

     total energy              =   -1205.87278155 Ry
     Harris-Foulkes estimate   =   -1205.87278138 Ry
     estimated scf accuracy    <       0.00000243 Ry

     iteration #  4     ecut=    29.40 Ry     beta=0.10
     Davidson diagonalization with overlap
     ethr =  2.89E-09,  avg # of iterations =  1.0

     negative rho (up, down):  2.108E-03 0.000E+00
 
     Adding external electric field

     Computed dipole along edir(3) : 
        Dipole               -0.1523 Ry au,         -0.3872 Debye
        Dipole field         -0.0010 Ry au
 
        Potential amp.        0.0722 Ry
        Total length         35.2972 bohr
 

     total cpu time spent up to now is      684.5 secs

     End of self-consistent calculation

          k = 0.0000 0.0000 0.0000 (  5071 PWs)   bands (ev):

   -91.3673 -91.1332 -91.1141 -91.0589 -54.8421 -54.8242 -54.7802 -54.6761
   -54.5910 -54.5590 -54.5579 -54.5490 -54.5335 -54.5097 -54.5069 -54.4415
   -14.2962  -6.0542  -5.3839  -5.2730  -5.1211  -4.8889  -4.5673  -4.3092
    -4.0109  -3.8819  -3.8710  -3.7896  -3.7801  -3.5057  -3.3465  -2.9145
    -2.9035  -2.7345  -2.5422  -2.4022  -2.3757  -2.3224  -2.1385  -2.0471
    -0.6925   0.5647   1.4232   1.4455   2.3013   4.1382   5.0815   5.3197
     5.4663   6.5935   7.0684   7.3803   8.7926   9.3868   9.6573  10.2662
    10.4983  11.0362  11.4178  11.4789  11.8295  12.3535  12.6224  12.8520
    12.9270  13.0303  13.9415  14.3810  14.6991  15.5455  15.8505  16.0464

          k = 0.0000 0.0998 0.0000 (  5031 PWs)   bands (ev):

   -91.3644 -91.1289 -91.1125 -91.0562 -54.8360 -54.8209 -54.8153 -54.6565
   -54.6213 -54.6083 -54.5743 -54.5570 -54.5495 -54.5239 -54.5018 -54.4408
   -13.9139  -5.0772  -4.8661  -4.7105  -4.6197  -4.5900  -4.5003  -4.3646
    -4.0971  -3.8602  -3.7498  -3.6412  -3.5113  -3.4189  -3.3760  -3.3293
    -3.1666  -3.0864  -2.8512  -2.7935  -2.6392  -2.4123  -2.3102  -1.9035
    -0.8807   0.4245   0.8798   2.8543   3.6014   5.7088   6.5784   6.8564
     7.3070   7.7051   8.0937   8.3169   8.8315   9.7499  10.0767  10.1506
    10.6410  10.6749  10.8778  11.0221  11.4924  11.7999  12.6055  12.9391
    13.2982  13.4985  13.8307  13.9913  14.3482  14.8509  15.0746  15.4210

          k = 0.0000-0.1996 0.0000 (  5048 PWs)   bands (ev):

   -91.3615 -91.1256 -91.1101 -91.0534 -54.8667 -54.8301 -54.8136 -54.6775
   -54.6756 -54.5939 -54.5933 -54.5817 -54.5486 -54.5195 -54.4971 -54.4427
   -13.4649  -5.2935  -5.2694  -5.2152  -5.1106  -5.0993  -4.9299  -4.8862
    -4.2002  -4.0890  -3.6250  -3.4688  -3.4440  -2.8058  -2.6258  -2.5415
    -2.4920  -2.4590  -2.1911  -2.1064  -2.0827  -2.0534  -2.0302  -0.8535
     1.4011   1.4384   2.2996   2.3051   3.2983   5.2990   5.4367   5.7013
     7.1843   7.9620   9.4003   9.5715   9.6142  10.1803  10.5033  10.6027
    11.0817  11.1442  11.5032  11.5750  11.8026  11.9715  12.2535  12.3826
    12.7057  12.7429  12.8611  12.9057  13.0636  13.2668  13.5911  14.3444

          k =-0.0864 0.0499 0.0000 (  5024 PWs)   bands (ev):

   -91.3672 -91.1312 -91.1160 -91.0590 -54.8349 -54.8183 -54.7787 -54.6248
   -54.6116 -54.5797 -54.5683 -54.5639 -54.5290 -54.5106 -54.5097 -54.4398
   -14.2882  -5.1665  -5.0316  -4.8688  -4.7579  -4.5017  -4.4483  -4.3241
    -4.2362  -3.8932  -3.6080  -3.4970  -3.4492  -3.3914  -3.3187  -3.2657
    -3.1583  -3.1378  -3.0428  -2.8707  -2.8115  -2.7254  -2.4734  -2.3395
    -2.0306   0.1006   0.2603   0.6552   3.0195   3.8524   6.2720   6.5725
     6.7418   7.1566   7.9534   8.1700   8.2629   8.6581   9.3887  10.2787
    10.7472  10.8858  10.9748  11.0903  11.7631  12.0374  13.3306  13.6005
    14.0014  14.2172  14.6598  15.1279  15.3612  15.5238  15.8569  16.4038

          k =-0.0864 0.1497 0.0000 (  5031 PWs)   bands (ev):

   -91.3644 -91.1289 -91.1125 -91.0562 -54.8334 -54.8262 -54.8126 -54.6564
   -54.6215 -54.6082 -54.5743 -54.5571 -54.5494 -54.5239 -54.5018 -54.4408
   -13.9141  -5.0703  -4.8645  -4.7087  -4.6329  -4.5660  -4.5012  -4.3776
    -4.0759  -3.8569  -3.7847  -3.6256  -3.5037  -3.4332  -3.3705  -3.3379
    -3.1575  -3.0872  -2.8526  -2.7928  -2.6422  -2.4112  -2.3149  -1.8952
    -0.9177   0.4322   0.8783   2.8553   3.6113   5.6816   6.5922   6.8694
     7.3013   7.7392   8.0879   8.3168   8.8450   9.7425  10.0538  10.1979
    10.6378  10.7056  10.8474  11.0322  11.6000  11.8312  12.3516  12.9821
    13.2933  13.5365  13.8717  13.9704  14.3470  14.8505  15.1949  15.4033

          k =-0.0864-0.1497 0.0000 (  5038 PWs)   bands (ev):

   -91.3615 -91.1256 -91.1101 -91.0534 -54.8635 -54.8258 -54.8101 -54.6608
   -54.6522 -54.6173 -54.6061 -54.5947 -54.5545 -54.5182 -54.4965 -54.4421
   -13.4698  -5.2018  -4.7999  -4.7420  -4.6117  -4.5760  -4.4359  -4.4308
    -3.9110  -3.8716  -3.7963  -3.6724  -3.6528  -3.5687  -3.4180  -3.3683
    -3.2521  -2.8334  -2.7666  -2.6017  -2.3595  -2.1797  -2.0168  -0.8904
     0.8786   0.8958   2.7463   3.3536   4.9974   7.0725   7.3093   7.4079
     7.6467   7.8353   8.7824   8.8054   9.4001   9.7788   9.9250  10.0137
    10.2581  10.3975  10.6881  10.9484  11.1736  11.3762  11.5319  11.8325
    12.6511  12.9922  13.3931  13.5393  13.6675  13.8273  13.9328  14.7505

     the Fermi energy is     0.8322 ev

!    total energy              =   -1205.87278142 Ry
     Harris-Foulkes estimate   =   -1205.87278589 Ry
     estimated scf accuracy    <       0.00000039 Ry

     The total energy is the sum of the following terms:

     one-electron contribution =   -5611.12842504 Ry
     hartree contribution      =    2801.60172109 Ry
     xc contribution           =    -123.05641466 Ry
     ewald contribution        =    1726.71951965 Ry
     electric field correction =       0.00015569 Ry
     smearing contrib. (-TS)   =      -0.00933815 Ry

     convergence has been achieved in   4 iterations

     Forces acting on atoms (Ry/au):


     negative rho (up, down):  2.108E-03 0.000E+00
     atom    1 type  1   force =    -0.00090994    0.00052716   -0.02322060
     atom    2 type  1   force =     0.00089913   -0.00051085   -0.02495651
     atom    3 type  1   force =    -0.00014037   -0.00016270    0.02260248
     atom    4 type  1   force =    -0.00045470    0.00006977    0.02520962
     atom    5 type  2   force =    -0.00898420    0.00053803   -0.12312212
     atom    6 type  3   force =     0.00050477   -0.00027146    0.00008583
     atom    7 type  3   force =     0.00007409    0.00005668   -0.00000463
     atom    8 type  3   force =     0.00901122   -0.00024664    0.12340592

     Total force =     0.181278     Total SCF correction =     0.002874
 !ASE
 
     init_run     :      0.90s CPU      0.91s WALL (       1 calls)
     electrons    :    624.60s CPU    629.41s WALL (      47 calls)
     update_pot   :     20.01s CPU     20.27s WALL (      46 calls)
     forces       :     28.06s CPU     28.13s WALL (      47 calls)

     Called by init_run:
     wfcinit      :      0.33s CPU      0.33s WALL (       1 calls)
     potinit      :      0.14s CPU      0.14s WALL (       1 calls)

     Called by electrons:
     c_bands      :    476.51s CPU    480.03s WALL (     377 calls)
     sum_band     :     93.97s CPU     94.73s WALL (     377 calls)
     v_of_rho     :     10.09s CPU     10.27s WALL (     424 calls)
     newd         :     45.75s CPU     45.83s WALL (     424 calls)
     mix_rho      :      2.39s CPU      2.41s WALL (     377 calls)

     Called by c_bands:
     init_us_2    :      2.63s CPU      2.68s WALL (    4812 calls)
     cegterg      :    462.05s CPU    465.36s WALL (    2262 calls)

     Called by *egterg:
     h_psi        :    209.09s CPU    211.64s WALL (    7646 calls)
     s_psi        :     13.60s CPU     13.76s WALL (    7646 calls)
     g_psi        :      2.04s CPU      2.04s WALL (    5378 calls)
     cdiaghg      :    130.09s CPU    130.44s WALL (    7364 calls)

     Called by h_psi:
     add_vuspsi   :     14.19s CPU     14.26s WALL (    7646 calls)

     General routines
     calbec       :     26.19s CPU     26.24s WALL (   10190 calls)
     fft          :      9.55s CPU      9.74s WALL (    7159 calls)
     ffts         :      0.26s CPU      0.27s WALL (     801 calls)
     fftw         :    175.33s CPU    177.91s WALL (  902230 calls)
     interpolate  :      1.25s CPU      1.31s WALL (     801 calls)
 
     Parallel routines
     fft_scatter  :     82.55s CPU     83.88s WALL (  910190 calls)
 
     PWSCF        : 11m18.84s CPU    11m25.29s WALL

 
   This run was terminated on:   6: 2:17  18Feb2017            

=------------------------------------------------------------------------------=
   JOB DONE.
=------------------------------------------------------------------------------=
Job  /afs/slac/g/suncat/bin/suncat-tsmpirun -x LD_LIBRARY_PATH -wdir /scratch/qe259882_5EoXe pw.x -in pw.inp

TID   HOST_NAME   COMMAND_LINE            STATUS            TERMINATION_TIME
===== ========== ================  =======================  ===================
00000 suncat1015 pw.x -in pw.inp   Done                     02/18/2017 06:02:17
00001 suncat1015 pw.x -in pw.inp   Done                     02/18/2017 06:02:17
00002 suncat1015 pw.x -in pw.inp   Done                     02/18/2017 06:02:17
00003 suncat1015 pw.x -in pw.inp   Done                     02/18/2017 06:02:17
00004 suncat1015 pw.x -in pw.inp   Done                     02/18/2017 06:02:17
00005 suncat1015 pw.x -in pw.inp   Done                     02/18/2017 06:02:17
00006 suncat1015 pw.x -in pw.inp   Done                     02/18/2017 06:02:17
00007 suncat1015 pw.x -in pw.inp   Done                     02/18/2017 06:02:17
00008 suncat1015 pw.x -in pw.inp   Done                     02/18/2017 06:02:17
00009 suncat1015 pw.x -in pw.inp   Done                     02/18/2017 06:02:17
00010 suncat1015 pw.x -in pw.inp   Done                     02/18/2017 06:02:17
00011 suncat1015 pw.x -in pw.inp   Done                     02/18/2017 06:02:17
