  python dir          : /nfs/slac/g/suncatfs/aidank/software/ase-espresso/lib/python2.7/site-packages/espresso
  espresso dir        : /nfs/slac/g/suncatfs/aidank/software/espresso-qeforge/bin
  pseudo dir          : /nfs/slac/g/suncatfs/aidank/scripts/gbrv/
  ase-espresso py git : c91b4c2-git



     Program PWSCF v.5.0.2 (svn rev. 10453) starts on 18Feb2017 at  7: 8:57 

     This program is part of the open-source Quantum ESPRESSO suite
     for quantum simulation of materials; please cite
         "P. Giannozzi et al., J. Phys.:Condens. Matter 21 395502 (2009);
          URL http://www.quantum-espresso.org", 
     in publications or presentations arising from this work. More details at
     http://www.quantum-espresso.org/quote

     Parallel version (MPI), running on    12 processors
     R & G space division:  proc/nbgrp/npool/nimage =      12
     Reading input from pw.inp
     Message from routine read_cards :
     DEPRECATED: no units specified in CELL_PARAMETERS card

     Current dimensions of program PWSCF are:
     Max number of different atomic species (ntypx) = 10
     Max number of k-points (npk) =  40000
     Max angular momentum in pseudopotentials (lmaxx) =  3
     Presently no symmetry can be used with electric field


     IMPORTANT: XC functional enforced from input :
     Exchange-correlation      = PBE ( 1  4  3  4 0)
     Any further DFT definition will be discarded
     Please, verify this is what you really want


     Subspace diagonalization in iterative solution of the eigenvalue problem:
     a serial algorithm will be used

 
     Parallelization info
     --------------------
     sticks:   dense  smooth     PW     G-vecs:    dense   smooth      PW
     Min          81      39     12                 9513     3338     586
     Max          82      40     16                 9522     3378     597
     Sum         981     479    161               114205    40347    7083
 


     bravais-lattice index     =            0
     lattice parameter (alat)  =       1.8897  a.u.
     unit-cell volume          =    1872.8848 (a.u.)^3
     number of atoms/cell      =            8
     number of atomic types    =            3
     number of electrons       =        84.00
     number of Kohn-Sham states=           72
     kinetic-energy cutoff     =      29.3995  Ry
     charge density cutoff     =     235.1957  Ry
     convergence threshold     =      1.0E-06
     mixing beta               =       0.1000
     number of iterations used =           15  plain     mixing
     Exchange-correlation      = PBE ( 1  4  3  4 0)
     nstep                     =           50


     celldm(1)=   1.889726  celldm(2)=   0.000000  celldm(3)=   0.000000
     celldm(4)=   0.000000  celldm(5)=   0.000000  celldm(6)=   0.000000

     crystal axes: (cart. coord. in units of alat)
               a(1) = (   5.784133   0.000000   0.000000 )  
               a(2) = (   1.446033   2.504603   0.000000 )  
               a(3) = (   0.000000   0.000000  19.157428 )  

     reciprocal axes: (cart. coord. in units 2 pi/alat)
               b(1) = (  0.172887 -0.099816  0.000000 )  
               b(2) = (  0.000000  0.399265  0.000000 )  
               b(3) = (  0.000000  0.000000  0.052199 )  


     PseudoPot. # 1 for Ag read from file:
     /nfs/slac/g/suncatfs/aidank/scripts/gbrv/Ag.UPF
     MD5 check sum: d66d668201baa78d5eb5b04ef7011058
     Pseudo is Ultrasoft + core correction, Zval = 19.0
     Generated by new atomic code, or converted to UPF format
     Using radial grid of  887 points,  6 beta functions with: 
                l(1) =   0
                l(2) =   0
                l(3) =   1
                l(4) =   1
                l(5) =   2
                l(6) =   2
     Q(r) pseudized with  6 coefficients,  rinner =    1.300   1.300   1.300
                                                       1.300   1.300

     PseudoPot. # 2 for N  read from file:
     /nfs/slac/g/suncatfs/aidank/scripts/gbrv/N.UPF
     MD5 check sum: 95339753478d7afb44899504a8723017
     Pseudo is Ultrasoft + core correction, Zval =  5.0
     Generated by new atomic code, or converted to UPF format
     Using radial grid of  729 points,  4 beta functions with: 
                l(1) =   0
                l(2) =   0
                l(3) =   1
                l(4) =   1
     Q(r) pseudized with  8 coefficients,  rinner =    0.900   0.900   0.900


     PseudoPot. # 3 for H  read from file:
     /nfs/slac/g/suncatfs/aidank/scripts/gbrv/H.UPF
     MD5 check sum: 761ae9a214b05c3daf00ab9f6b793d6f
     Pseudo is Ultrasoft, Zval =  1.0
     Generated by new atomic code, or converted to UPF format
     Using radial grid of  615 points,  2 beta functions with: 
                l(1) =   0
                l(2) =   0
     Q(r) pseudized with  8 coefficients,  rinner =    0.700

     atomic species   valence    mass     pseudopotential
        Ag1           19.00   107.86800     Ag( 1.00)
        N1             5.00    14.00670     N ( 1.00)
        H1             1.00     1.00794     H ( 1.00)

     No symmetry found



   Cartesian axes

     site n.     atom                  positions (alat units)
         1           Ag1 tau(   1) = (   5.4594866   0.7084522   7.1205000  )
         2           Ag1 tau(   2) = (   2.5674199   0.7084522   7.1205000  )
         3           Ag1 tau(   3) = (   1.1213865   1.5433200   9.4818626  )
         4           Ag1 tau(   4) = (   4.0134533   1.5433200   9.4818626  )
         5           N1  tau(   5) = (   4.5738117   1.6386688  11.4454468  )
         6           H1  tau(   6) = (   4.4037061   1.9483377  12.3816948  )
         7           H1  tau(   7) = (   4.2906186   0.6715254  11.4819580  )
         8           H1  tau(   8) = (   2.9616651   2.1981712  11.0034076  )

     number of k points=     6  Fermi-Dirac smearing, width (Ry)=  0.0073
                       cart. coord. in units 2pi/alat
        k(    1) = (   0.0000000   0.0000000   0.0000000), wk =   0.2500000
        k(    2) = (   0.0000000   0.0998162   0.0000000), wk =   0.5000000
        k(    3) = (   0.0000000  -0.1996324   0.0000000), wk =   0.2500000
        k(    4) = (  -0.0864434   0.0499081   0.0000000), wk =   0.2500000
        k(    5) = (  -0.0864434   0.1497243   0.0000000), wk =   0.5000000
        k(    6) = (  -0.0864434  -0.1497243   0.0000000), wk =   0.2500000

     Dense  grid:   114205 G-vectors     FFT dimensions: (  54,  27, 180)

     Smooth grid:    40347 G-vectors     FFT dimensions: (  40,  20, 125)

     Largest allocated arrays     est. size (Mb)     dimensions
        Kohn-Sham Wavefunctions         0.49 Mb     (     450,   72)
        NL pseudopotentials             0.59 Mb     (     450,   86)
        Each V/rho on FFT grid          0.33 Mb     (   21870)
        Each G-vector array             0.07 Mb     (    9513)
        G-vector shells                 0.03 Mb     (    3999)
     Largest temporary arrays     est. size (Mb)     dimensions
        Auxiliary wavefunctions         1.98 Mb     (     450,  288)
        Each subspace H/S matrix        1.27 Mb     (     288,  288)
        Each <psi_i|beta_j> matrix      0.09 Mb     (      86,   72)
        Arrays for rho mixing           5.01 Mb     (   21870,   15)

     Initial potential from superposition of free atoms
     Check: negative starting charge=   -0.002418

     starting charge   81.99978, renormalised to   84.00000

     negative rho (up, down):  2.477E-03 0.000E+00
 
     Adding external electric field

     Computed dipole along edir(3) : 
        Dipole               -1.1838 Ry au,         -3.0088 Debye
        Dipole field         -0.0079 Ry au
 
        Potential amp.        0.5607 Ry
        Total length         35.2972 bohr
 
     Starting wfc are   59 randomized atomic wfcs +   13 random wfc

     total cpu time spent up to now is        1.2 secs

     per-process dynamical memory:    18.4 Mb

     Self-consistent Calculation

     iteration #  1     ecut=    29.40 Ry     beta=0.10
     Davidson diagonalization with overlap
     ethr =  1.00E-02,  avg # of iterations =  7.2

     negative rho (up, down):  1.097E-03 0.000E+00
 
     Adding external electric field

     Computed dipole along edir(3) : 
        Dipole                1.3568 Ry au,          3.4487 Debye
        Dipole field          0.0091 Ry au
 
        Potential amp.       -0.6427 Ry
        Total length         35.2972 bohr
 

     total cpu time spent up to now is        5.1 secs

     total energy              =   -1203.78977152 Ry
     Harris-Foulkes estimate   =   -1207.57076334 Ry
     estimated scf accuracy    <      21.57337112 Ry

     iteration #  2     ecut=    29.40 Ry     beta=0.10
     Davidson diagonalization with overlap
     ethr =  1.00E-02,  avg # of iterations =  3.5

     negative rho (up, down):  7.926E-04 0.000E+00
 
     Adding external electric field

     Computed dipole along edir(3) : 
        Dipole                0.0111 Ry au,          0.0281 Debye
        Dipole field          0.0001 Ry au
 
        Potential amp.       -0.0052 Ry
        Total length         35.2972 bohr
 

     total cpu time spent up to now is        7.0 secs

     total energy              =   -1205.07893461 Ry
     Harris-Foulkes estimate   =   -1207.26059695 Ry
     estimated scf accuracy    <      23.69862736 Ry

     iteration #  3     ecut=    29.40 Ry     beta=0.10
     Davidson diagonalization with overlap
     ethr =  1.00E-02,  avg # of iterations =  2.5

     negative rho (up, down):  8.442E-04 0.000E+00
 
     Adding external electric field

     Computed dipole along edir(3) : 
        Dipole                0.0215 Ry au,          0.0547 Debye
        Dipole field          0.0001 Ry au
 
        Potential amp.       -0.0102 Ry
        Total length         35.2972 bohr
 

     total cpu time spent up to now is        8.6 secs

     total energy              =   -1205.91116489 Ry
     Harris-Foulkes estimate   =   -1206.12947168 Ry
     estimated scf accuracy    <       1.17753587 Ry

     iteration #  4     ecut=    29.40 Ry     beta=0.10
     Davidson diagonalization with overlap
     ethr =  1.40E-03,  avg # of iterations =  2.5

     negative rho (up, down):  9.612E-04 0.000E+00
 
     Adding external electric field

     Computed dipole along edir(3) : 
        Dipole                0.2392 Ry au,          0.6080 Debye
        Dipole field          0.0016 Ry au
 
        Potential amp.       -0.1133 Ry
        Total length         35.2972 bohr
 

     total cpu time spent up to now is       10.8 secs

     total energy              =   -1205.72038259 Ry
     Harris-Foulkes estimate   =   -1205.94249630 Ry
     estimated scf accuracy    <       0.51479414 Ry

     iteration #  5     ecut=    29.40 Ry     beta=0.10
     Davidson diagonalization with overlap
     ethr =  6.13E-04,  avg # of iterations =  3.7

     negative rho (up, down):  9.992E-04 0.000E+00
 
     Adding external electric field

     Computed dipole along edir(3) : 
        Dipole                0.2062 Ry au,          0.5242 Debye
        Dipole field          0.0014 Ry au
 
        Potential amp.       -0.0977 Ry
        Total length         35.2972 bohr
 

     total cpu time spent up to now is       12.8 secs

     total energy              =   -1205.80868443 Ry
     Harris-Foulkes estimate   =   -1205.81211493 Ry
     estimated scf accuracy    <       0.04029261 Ry

     iteration #  6     ecut=    29.40 Ry     beta=0.10
     Davidson diagonalization with overlap
     ethr =  4.80E-05,  avg # of iterations =  4.2

     negative rho (up, down):  1.389E-03 0.000E+00
 
     Adding external electric field

     Computed dipole along edir(3) : 
        Dipole                0.2175 Ry au,          0.5527 Debye
        Dipole field          0.0015 Ry au
 
        Potential amp.       -0.1030 Ry
        Total length         35.2972 bohr
 

     total cpu time spent up to now is       14.6 secs

     total energy              =   -1205.80156668 Ry
     Harris-Foulkes estimate   =   -1205.80949459 Ry
     estimated scf accuracy    <       0.02306054 Ry

     iteration #  7     ecut=    29.40 Ry     beta=0.10
     Davidson diagonalization with overlap
     ethr =  2.75E-05,  avg # of iterations =  5.5

     negative rho (up, down):  1.458E-03 0.000E+00
 
     Adding external electric field

     Computed dipole along edir(3) : 
        Dipole                0.2224 Ry au,          0.5652 Debye
        Dipole field          0.0015 Ry au
 
        Potential amp.       -0.1053 Ry
        Total length         35.2972 bohr
 

     total cpu time spent up to now is       16.7 secs

     total energy              =   -1205.80331722 Ry
     Harris-Foulkes estimate   =   -1205.80398570 Ry
     estimated scf accuracy    <       0.00609843 Ry

     iteration #  8     ecut=    29.40 Ry     beta=0.10
     Davidson diagonalization with overlap
     ethr =  7.26E-06,  avg # of iterations =  3.8

     negative rho (up, down):  1.735E-03 0.000E+00
 
     Adding external electric field

     Computed dipole along edir(3) : 
        Dipole                0.1781 Ry au,          0.4528 Debye
        Dipole field          0.0012 Ry au
 
        Potential amp.       -0.0844 Ry
        Total length         35.2972 bohr
 

     total cpu time spent up to now is       18.4 secs

     total energy              =   -1205.80298385 Ry
     Harris-Foulkes estimate   =   -1205.80367683 Ry
     estimated scf accuracy    <       0.00237207 Ry

     iteration #  9     ecut=    29.40 Ry     beta=0.10
     Davidson diagonalization with overlap
     ethr =  2.82E-06,  avg # of iterations =  3.5

     negative rho (up, down):  1.945E-03 0.000E+00
 
     Adding external electric field

     Computed dipole along edir(3) : 
        Dipole                0.1622 Ry au,          0.4122 Debye
        Dipole field          0.0011 Ry au
 
        Potential amp.       -0.0768 Ry
        Total length         35.2972 bohr
 

     total cpu time spent up to now is       20.2 secs

     total energy              =   -1205.80324779 Ry
     Harris-Foulkes estimate   =   -1205.80333495 Ry
     estimated scf accuracy    <       0.00038782 Ry

     iteration # 10     ecut=    29.40 Ry     beta=0.10
     Davidson diagonalization with overlap
     ethr =  4.62E-07,  avg # of iterations =  2.8

     negative rho (up, down):  2.083E-03 0.000E+00
 
     Adding external electric field

     Computed dipole along edir(3) : 
        Dipole                0.1644 Ry au,          0.4180 Debye
        Dipole field          0.0011 Ry au
 
        Potential amp.       -0.0779 Ry
        Total length         35.2972 bohr
 

     total cpu time spent up to now is       21.8 secs

     total energy              =   -1205.80326086 Ry
     Harris-Foulkes estimate   =   -1205.80327724 Ry
     estimated scf accuracy    <       0.00020957 Ry

     iteration # 11     ecut=    29.40 Ry     beta=0.10
     Davidson diagonalization with overlap
     ethr =  2.49E-07,  avg # of iterations =  1.7

     negative rho (up, down):  2.221E-03 0.000E+00
 
     Adding external electric field

     Computed dipole along edir(3) : 
        Dipole                0.1623 Ry au,          0.4126 Debye
        Dipole field          0.0011 Ry au
 
        Potential amp.       -0.0769 Ry
        Total length         35.2972 bohr
 

     total cpu time spent up to now is       23.2 secs

     total energy              =   -1205.80327990 Ry
     Harris-Foulkes estimate   =   -1205.80328319 Ry
     estimated scf accuracy    <       0.00002249 Ry

     iteration # 12     ecut=    29.40 Ry     beta=0.10
     Davidson diagonalization with overlap
     ethr =  2.68E-08,  avg # of iterations =  2.0

     negative rho (up, down):  2.320E-03 0.000E+00
 
     Adding external electric field

     Computed dipole along edir(3) : 
        Dipole                0.1607 Ry au,          0.4084 Debye
        Dipole field          0.0011 Ry au
 
        Potential amp.       -0.0761 Ry
        Total length         35.2972 bohr
 

     total cpu time spent up to now is       24.6 secs

     total energy              =   -1205.80328436 Ry
     Harris-Foulkes estimate   =   -1205.80328603 Ry
     estimated scf accuracy    <       0.00001354 Ry

     iteration # 13     ecut=    29.40 Ry     beta=0.10
     Davidson diagonalization with overlap
     ethr =  1.61E-08,  avg # of iterations =  1.0

     negative rho (up, down):  2.344E-03 0.000E+00
 
     Adding external electric field

     Computed dipole along edir(3) : 
        Dipole                0.1601 Ry au,          0.4069 Debye
        Dipole field          0.0011 Ry au
 
        Potential amp.       -0.0758 Ry
        Total length         35.2972 bohr
 

     total cpu time spent up to now is       25.9 secs

     total energy              =   -1205.80328562 Ry
     Harris-Foulkes estimate   =   -1205.80328601 Ry
     estimated scf accuracy    <       0.00000255 Ry

     iteration # 14     ecut=    29.40 Ry     beta=0.10
     Davidson diagonalization with overlap
     ethr =  3.03E-09,  avg # of iterations =  2.0

     negative rho (up, down):  2.371E-03 0.000E+00
 
     Adding external electric field

     Computed dipole along edir(3) : 
        Dipole                0.1612 Ry au,          0.4097 Debye
        Dipole field          0.0011 Ry au
 
        Potential amp.       -0.0763 Ry
        Total length         35.2972 bohr
 

     total cpu time spent up to now is       27.4 secs

     End of self-consistent calculation

          k = 0.0000 0.0000 0.0000 (  5071 PWs)   bands (ev):

   -90.5143 -90.2474 -90.1849 -90.1299 -54.0210 -53.9882 -53.9275 -53.7726
   -53.6874 -53.6625 -53.6404 -53.6212 -53.6184 -53.5965 -53.5503 -53.5432
   -15.4549  -6.2035  -5.2949  -4.6004  -4.5199  -4.3822  -4.1608  -3.5310
    -3.1564  -3.0046  -2.9698  -2.8900  -2.8699  -2.7717  -2.6192  -2.1431
    -1.9874  -1.8472  -1.7733  -1.5421  -1.5074  -1.4563  -1.2294  -1.1321
    -0.2885   0.6887   1.4206   2.6567   3.4962   4.6030   5.3383   5.8270
     6.4444   6.6744   7.5762   8.0569   9.0983   9.3353   9.4935   9.9254
    10.5375  11.0322  11.1411  11.4284  11.6340  12.2696  12.6328  12.8256
    13.1989  13.8343  13.9716  14.5149  15.0810  15.1405  15.8251  16.5983

          k = 0.0000 0.0998 0.0000 (  5031 PWs)   bands (ev):

   -90.5114 -90.2442 -90.1824 -90.1272 -54.0163 -53.9811 -53.9669 -53.7544
   -53.7253 -53.6662 -53.6601 -53.6502 -53.6158 -53.6004 -53.5770 -53.5498
   -15.0434  -6.2507  -4.8346  -4.2709  -4.1021  -3.8077  -3.7050  -3.4417
    -3.3728  -3.2636  -2.9785  -2.8465  -2.7170  -2.5437  -2.4993  -2.3848
    -2.2889  -2.1867  -2.0357  -1.9200  -1.7654  -1.5518  -1.4078  -0.8824
    -0.6837   1.5305   2.1360   3.2302   4.9826   6.0336   6.5398   6.9635
     7.8961   8.1886   8.3977   8.7517   9.0680   9.4199   9.6981  10.6549
    10.6642  10.8919  11.1277  11.4838  12.0433  12.3472  12.4556  13.2824
    13.4801  13.6548  14.0900  14.4186  14.8793  15.0475  15.4244  15.5509

          k = 0.0000-0.1996 0.0000 (  5048 PWs)   bands (ev):

   -90.5086 -90.2412 -90.1796 -90.1244 -54.0158 -54.0090 -53.9760 -53.7760
   -53.7593 -53.6822 -53.6570 -53.6521 -53.6289 -53.6063 -53.5800 -53.5557
   -14.5512  -6.8907  -5.0437  -4.5958  -4.4326  -4.3728  -4.1260  -3.9240
    -3.7486  -3.4100  -2.9373  -2.7275  -2.5434  -2.1961  -1.9031  -1.7035
    -1.6084  -1.5859  -1.3234  -1.1860  -1.1304  -1.1071  -0.8663  -0.4466
     2.1184   2.4883   3.0195   3.3506   4.8019   5.9605   6.3212   6.5554
     8.0500   8.4118   8.9756   9.7802  10.1326  10.4554  10.7118  10.8782
    11.0644  11.1073  11.2502  11.2663  11.5146  12.2276  12.3499  12.4910
    12.5754  12.7033  13.0764  13.2429  13.5811  13.7929  14.2434  14.4532

          k =-0.0864 0.0499 0.0000 (  5024 PWs)   bands (ev):

   -90.5143 -90.2469 -90.1854 -90.1300 -54.0202 -53.9793 -53.9262 -53.7384
   -53.6829 -53.6770 -53.6599 -53.6267 -53.6243 -53.6009 -53.5487 -53.5429
   -15.4437  -6.1030  -5.0737  -4.2045  -3.9941  -3.8760  -3.7587  -3.4201
    -3.2548  -3.2108  -3.0002  -2.9083  -2.6345  -2.4721  -2.4274  -2.3686
    -2.2671  -2.2027  -2.1352  -2.0435  -1.9525  -1.7671  -1.5042  -1.4194
    -1.0555  -0.2741   1.4733   2.4165   3.5987   5.3019   5.9559   6.2197
     6.6688   6.8446   7.1816   7.8835   8.2872   8.5553   9.2006   9.7715
    10.4996  10.8943  11.2456  11.9998  12.2246  12.6799  13.8150  14.0110
    14.5450  14.7507  15.5321  15.8435  16.0498  16.4748  16.5302  17.1559

          k =-0.0864 0.1497 0.0000 (  5031 PWs)   bands (ev):

   -90.5114 -90.2442 -90.1824 -90.1272 -54.0163 -53.9791 -53.9690 -53.7528
   -53.7264 -53.6714 -53.6586 -53.6470 -53.6156 -53.6004 -53.5771 -53.5499
   -15.0434  -6.2493  -4.8254  -4.2814  -4.0168  -3.7658  -3.7152  -3.5608
    -3.3667  -3.2595  -2.9810  -2.8730  -2.7033  -2.5680  -2.4661  -2.3609
    -2.3512  -2.1825  -2.0867  -1.9274  -1.8350  -1.5287  -1.4429  -0.8568
    -0.5449   1.7021   2.0626   3.3263   4.8721   5.9900   6.5011   6.9132
     7.8099   8.1079   8.3411   8.7525   9.0098   9.4484   9.6509  10.5636
    10.6923  10.9859  11.1978  11.6553  12.0401  12.2885  12.5329  13.4290
    13.6190  13.7352  14.1679  14.4888  14.8511  15.1518  15.4337  15.5155

          k =-0.0864-0.1497 0.0000 (  5038 PWs)   bands (ev):

   -90.5086 -90.2412 -90.1796 -90.1244 -54.0146 -54.0075 -53.9710 -53.7646
   -53.7311 -53.7097 -53.6686 -53.6540 -53.6348 -53.6089 -53.5800 -53.5549
   -14.5579  -6.8926  -4.9654  -4.0671  -3.7933  -3.7181  -3.5616  -3.5077
    -3.4921  -3.3153  -2.9824  -2.9612  -2.7833  -2.7249  -2.5741  -2.5171
    -2.3207  -2.1312  -1.8417  -1.7048  -1.4698  -1.2787  -0.7052  -0.3507
     1.6742   2.0071   3.2851   4.3876   5.5516   7.6626   8.1058   8.2056
     8.3495   8.5158   8.8731   9.1551   9.5517   9.6115   9.8857  10.0227
    10.5306  10.8144  11.0088  11.4229  11.8512  11.9493  12.3362  12.4789
    12.9370  13.6208  13.6948  13.7649  14.2726  14.5826  14.7973  14.8709

     the Fermi energy is     1.9472 ev

!    total energy              =   -1205.80329219 Ry
     Harris-Foulkes estimate   =   -1205.80328363 Ry
     estimated scf accuracy    <       0.00000037 Ry

     The total energy is the sum of the following terms:

     one-electron contribution =   -6046.17410294 Ry
     hartree contribution      =    3021.07710064 Ry
     xc contribution           =    -123.30677134 Ry
     ewald contribution        =    1942.60778603 Ry
     electric field correction =       0.00017432 Ry
     smearing contrib. (-TS)   =      -0.00747890 Ry

     convergence has been achieved in  14 iterations

     Forces acting on atoms (Ry/au):


     negative rho (up, down):  2.371E-03 0.000E+00
     atom    1 type  1   force =    -0.00230427    0.00217340   -0.00880107
     atom    2 type  1   force =     0.00306632   -0.00161914   -0.01200837
     atom    3 type  1   force =     0.00602211   -0.00898826    0.02745530
     atom    4 type  1   force =    -0.03063659    0.02152435   -0.08156242
     atom    5 type  2   force =     0.01240824    0.00606056    0.03160114
     atom    6 type  3   force =    -0.01183723    0.03837810    0.04587073
     atom    7 type  3   force =     0.00343670   -0.05400440    0.02137031
     atom    8 type  3   force =     0.01984471   -0.00352460   -0.02392561

     Total force =     0.135790     Total SCF correction =     0.003891
 !ASE
     Check: negative starting charge=   -0.002418
     NEW-OLD atomic charge density approx. for the potential
     Check: negative starting charge=   -0.002383

     negative rho (up, down):  2.343E-03 0.000E+00
 
     Adding external electric field

     Computed dipole along edir(3) : 
        Dipole                0.1612 Ry au,          0.4097 Debye
        Dipole field          0.0011 Ry au
 
        Potential amp.       -0.0763 Ry
        Total length         35.2972 bohr
 

     total cpu time spent up to now is       28.7 secs

     per-process dynamical memory:    31.3 Mb

     Self-consistent Calculation

     iteration #  1     ecut=    29.40 Ry     beta=0.10
     Davidson diagonalization with overlap
     ethr =  3.03E-09,  avg # of iterations =  6.5

     negative rho (up, down):  2.327E-03 0.000E+00
 
     Adding external electric field

     Computed dipole along edir(3) : 
        Dipole                0.2218 Ry au,          0.5637 Debye
        Dipole field          0.0015 Ry au
 
        Potential amp.       -0.1050 Ry
        Total length         35.2972 bohr
 

     total cpu time spent up to now is       32.1 secs

     total energy              =   -1205.80633268 Ry
     Harris-Foulkes estimate   =   -1205.81518738 Ry
     estimated scf accuracy    <       0.05739073 Ry

     iteration #  2     ecut=    29.40 Ry     beta=0.10
     Davidson diagonalization with overlap
     ethr =  6.83E-05,  avg # of iterations =  2.3

     negative rho (up, down):  2.318E-03 0.000E+00
 
     Adding external electric field

     Computed dipole along edir(3) : 
        Dipole                0.1536 Ry au,          0.3905 Debye
        Dipole field          0.0010 Ry au
 
        Potential amp.       -0.0728 Ry
        Total length         35.2972 bohr
 

     total cpu time spent up to now is       33.6 secs

     total energy              =   -1205.80739341 Ry
     Harris-Foulkes estimate   =   -1205.81112749 Ry
     estimated scf accuracy    <       0.03494551 Ry

     iteration #  3     ecut=    29.40 Ry     beta=0.10
     Davidson diagonalization with overlap
     ethr =  4.16E-05,  avg # of iterations =  2.8

     negative rho (up, down):  2.319E-03 0.000E+00
 
     Adding external electric field

     Computed dipole along edir(3) : 
        Dipole                0.1222 Ry au,          0.3105 Debye
        Dipole field          0.0008 Ry au
 
        Potential amp.       -0.0579 Ry
        Total length         35.2972 bohr
 

     total cpu time spent up to now is       35.3 secs

     total energy              =   -1205.80564383 Ry
     Harris-Foulkes estimate   =   -1205.80887280 Ry
     estimated scf accuracy    <       0.01201228 Ry

     iteration #  4     ecut=    29.40 Ry     beta=0.10
     Davidson diagonalization with overlap
     ethr =  1.43E-05,  avg # of iterations =  3.8

     negative rho (up, down):  2.360E-03 0.000E+00
 
     Adding external electric field

     Computed dipole along edir(3) : 
        Dipole                0.1181 Ry au,          0.3001 Debye
        Dipole field          0.0008 Ry au
 
        Potential amp.       -0.0559 Ry
        Total length         35.2972 bohr
 

     total cpu time spent up to now is       37.1 secs

     total energy              =   -1205.80625882 Ry
     Harris-Foulkes estimate   =   -1205.80666597 Ry
     estimated scf accuracy    <       0.00249887 Ry

     iteration #  5     ecut=    29.40 Ry     beta=0.10
     Davidson diagonalization with overlap
     ethr =  2.97E-06,  avg # of iterations =  3.8

     negative rho (up, down):  2.502E-03 0.000E+00
 
     Adding external electric field

     Computed dipole along edir(3) : 
        Dipole                0.1222 Ry au,          0.3107 Debye
        Dipole field          0.0008 Ry au
 
        Potential amp.       -0.0579 Ry
        Total length         35.2972 bohr
 

     total cpu time spent up to now is       38.8 secs

     total energy              =   -1205.80628509 Ry
     Harris-Foulkes estimate   =   -1205.80639520 Ry
     estimated scf accuracy    <       0.00093428 Ry

     iteration #  6     ecut=    29.40 Ry     beta=0.10
     Davidson diagonalization with overlap
     ethr =  1.11E-06,  avg # of iterations =  2.8

     negative rho (up, down):  2.489E-03 0.000E+00
 
     Adding external electric field

     Computed dipole along edir(3) : 
        Dipole                0.1302 Ry au,          0.3310 Debye
        Dipole field          0.0009 Ry au
 
        Potential amp.       -0.0617 Ry
        Total length         35.2972 bohr
 

     total cpu time spent up to now is       40.4 secs

     total energy              =   -1205.80635405 Ry
     Harris-Foulkes estimate   =   -1205.80638027 Ry
     estimated scf accuracy    <       0.00044658 Ry

     iteration #  7     ecut=    29.40 Ry     beta=0.10
     Davidson diagonalization with overlap
     ethr =  5.32E-07,  avg # of iterations =  2.5

     negative rho (up, down):  2.507E-03 0.000E+00
 
     Adding external electric field

     Computed dipole along edir(3) : 
        Dipole                0.1387 Ry au,          0.3526 Debye
        Dipole field          0.0009 Ry au
 
        Potential amp.       -0.0657 Ry
        Total length         35.2972 bohr
 

     total cpu time spent up to now is       41.9 secs

     total energy              =   -1205.80637264 Ry
     Harris-Foulkes estimate   =   -1205.80636053 Ry
     estimated scf accuracy    <       0.00005521 Ry

     iteration #  8     ecut=    29.40 Ry     beta=0.10
     Davidson diagonalization with overlap
     ethr =  6.57E-08,  avg # of iterations =  3.2

     negative rho (up, down):  2.480E-03 0.000E+00
 
     Adding external electric field

     Computed dipole along edir(3) : 
        Dipole                0.1383 Ry au,          0.3516 Debye
        Dipole field          0.0009 Ry au
 
        Potential amp.       -0.0655 Ry
        Total length         35.2972 bohr
 

     total cpu time spent up to now is       43.6 secs

     total energy              =   -1205.80637959 Ry
     Harris-Foulkes estimate   =   -1205.80637918 Ry
     estimated scf accuracy    <       0.00000711 Ry

     iteration #  9     ecut=    29.40 Ry     beta=0.10
     Davidson diagonalization with overlap
     ethr =  8.46E-09,  avg # of iterations =  1.0

     negative rho (up, down):  2.459E-03 0.000E+00
 
     Adding external electric field

     Computed dipole along edir(3) : 
        Dipole                0.1392 Ry au,          0.3539 Debye
        Dipole field          0.0009 Ry au
 
        Potential amp.       -0.0659 Ry
        Total length         35.2972 bohr
 

     total cpu time spent up to now is       44.9 secs

     total energy              =   -1205.80638063 Ry
     Harris-Foulkes estimate   =   -1205.80637822 Ry
     estimated scf accuracy    <       0.00000373 Ry

     iteration # 10     ecut=    29.40 Ry     beta=0.10
     Davidson diagonalization with overlap
     ethr =  4.44E-09,  avg # of iterations =  2.0

     negative rho (up, down):  2.340E-03 0.000E+00
 
     Adding external electric field

     Computed dipole along edir(3) : 
        Dipole                0.1359 Ry au,          0.3455 Debye
        Dipole field          0.0009 Ry au
 
        Potential amp.       -0.0644 Ry
        Total length         35.2972 bohr
 

     total cpu time spent up to now is       46.4 secs

     End of self-consistent calculation

          k = 0.0000 0.0000 0.0000 (  5071 PWs)   bands (ev):

   -90.5812 -90.3130 -90.2585 -90.2041 -54.0857 -54.0487 -53.9907 -53.8404
   -53.7553 -53.7272 -53.7113 -53.6961 -53.6918 -53.6690 -53.6216 -53.6181
   -14.5247  -5.8341  -5.2024  -4.6260  -4.5897  -4.4231  -4.2086  -3.5051
    -3.0829  -3.0550  -3.0155  -2.9552  -2.9367  -2.8292  -2.6751  -2.1488
    -2.0612  -1.8621  -1.8077  -1.6025  -1.5394  -1.4934  -1.2995  -1.2022
     0.1553   0.5617   1.4338   2.5798   3.3515   4.6409   5.3450   5.7956
     6.3935   6.7000   7.3255   7.8907   8.1353   8.9988   9.3382   9.7909
    10.5457  10.9655  11.1455  11.4404  11.5856  12.2455  12.6075  12.8145
    13.1594  13.7205  13.9731  14.3831  14.9435  15.1327  15.7812  16.4466

          k = 0.0000 0.0998 0.0000 (  5031 PWs)   bands (ev):

   -90.5783 -90.3097 -90.2560 -90.2014 -54.0800 -54.0412 -54.0314 -53.8221
   -53.7923 -53.7411 -53.7283 -53.7190 -53.6894 -53.6737 -53.6509 -53.6208
   -14.0349  -5.6574  -4.7899  -4.1640  -4.1301  -3.8587  -3.7634  -3.5005
    -3.4245  -3.2982  -3.0491  -2.9057  -2.7804  -2.6086  -2.5565  -2.4441
    -2.3265  -2.2570  -2.0914  -1.9862  -1.7952  -1.6158  -1.4677  -0.9964
    -0.7072   1.4402   2.0085   3.2950   4.8635   6.0185   6.5327   6.9561
     7.7884   8.1278   8.3006   8.6939   8.9912   9.4186   9.6732  10.4236
    10.6068  10.6928  11.0388  11.1766  11.8720  12.0482  12.3918  13.1145
    13.3347  13.5899  13.9909  14.2680  14.7975  14.9852  15.4298  15.5490

          k = 0.0000-0.1996 0.0000 (  5048 PWs)   bands (ev):

   -90.5754 -90.3067 -90.2533 -90.1987 -54.0803 -54.0713 -54.0377 -53.8438
   -53.8287 -53.7535 -53.7298 -53.7172 -53.7037 -53.6807 -53.6520 -53.6264
   -13.4199  -6.4497  -4.8304  -4.6508  -4.4968  -4.4267  -4.1873  -3.9857
    -3.7510  -3.4405  -2.9588  -2.8043  -2.6125  -2.2410  -1.9740  -1.7695
    -1.6757  -1.6560  -1.3925  -1.2567  -1.2040  -1.1782  -1.0024  -0.4818
     2.0104   2.4013   2.9400   3.2652   4.7802   5.8664   6.2525   6.4934
     7.9848   8.2864   8.5731   9.8146  10.0927  10.4068  10.6748  10.8386
    11.0324  11.1035  11.2465  11.3079  11.5155  12.1594  12.2742  12.4256
    12.5458  12.6869  13.0188  13.1362  13.4960  13.7580  14.2038  14.3881

          k =-0.0864 0.0499 0.0000 (  5024 PWs)   bands (ev):

   -90.5811 -90.3124 -90.2591 -90.2042 -54.0820 -54.0426 -53.9894 -53.8040
   -53.7504 -53.7502 -53.7248 -53.7006 -53.6990 -53.6733 -53.6205 -53.6173
   -14.5107  -5.5475  -5.0824  -4.2527  -4.0696  -3.9437  -3.8186  -3.4798
    -3.2993  -3.2429  -3.0605  -2.8117  -2.6769  -2.5349  -2.4987  -2.4297
    -2.3399  -2.2582  -2.1963  -2.0597  -2.0039  -1.7549  -1.4962  -1.4912
    -1.1034   0.0835   1.3997   2.2062   3.7089   5.1098   5.9292   6.2432
     6.6757   6.8479   7.1572   7.7851   8.0197   8.2611   8.9837   9.1864
    10.5065  10.8737  11.1827  11.8964  12.1487  12.5596  13.7692  14.0133
    14.4941  14.5873  15.4067  15.5259  15.9129  16.3127  16.4445  17.0050

          k =-0.0864 0.1497 0.0000 (  5031 PWs)   bands (ev):

   -90.5783 -90.3097 -90.2560 -90.2014 -54.0795 -54.0415 -54.0318 -53.8202
   -53.7936 -53.7461 -53.7253 -53.7176 -53.6892 -53.6737 -53.6511 -53.6209
   -14.0349  -5.6660  -4.8004  -4.2072  -4.0141  -3.7969  -3.7417  -3.6163
    -3.4141  -3.3046  -3.0444  -2.9298  -2.7540  -2.6287  -2.5365  -2.4191
    -2.3592  -2.2479  -2.1464  -1.9978  -1.8970  -1.5986  -1.5032  -0.9064
    -0.6663   1.6013   1.9456   3.3815   4.7627   5.9828   6.5011   6.8876
     7.6889   8.0724   8.2774   8.6776   8.9209   9.3837   9.6563  10.4272
    10.6198  10.8804  11.0528  11.2959  11.8882  12.1279  12.3437  13.1677
    13.4946  13.7006  14.1284  14.3495  14.7470  15.0328  15.4235  15.4923

          k =-0.0864-0.1497 0.0000 (  5038 PWs)   bands (ev):

   -90.5754 -90.3067 -90.2533 -90.1987 -54.0782 -54.0691 -54.0342 -53.8318
   -53.7968 -53.7852 -53.7421 -53.7191 -53.7095 -53.6830 -53.6519 -53.6256
   -13.4282  -6.4549  -4.6577  -4.1382  -3.8635  -3.7839  -3.6315  -3.5802
    -3.5704  -3.3528  -3.0518  -2.9933  -2.8524  -2.7922  -2.6359  -2.5827
    -2.3723  -2.1944  -1.9063  -1.7683  -1.5404  -1.3498  -0.8811  -0.3290
     1.6211   1.9148   3.2944   4.3061   5.4824   7.6209   7.8833   8.0800
     8.2271   8.4516   8.8422   9.1134   9.5359   9.5762   9.7767   9.8857
    10.4602  10.7694  10.9543  11.3249  11.6264  11.8827  12.2372  12.3043
    12.8572  13.5150  13.5750  13.6990  14.2474  14.5778  14.7342  14.7585

     the Fermi energy is     1.8401 ev

!    total energy              =   -1205.80638648 Ry
     Harris-Foulkes estimate   =   -1205.80638717 Ry
     estimated scf accuracy    <       0.00000074 Ry

     The total energy is the sum of the following terms:

     one-electron contribution =   -6020.95435427 Ry
     hartree contribution      =    3008.32690697 Ry
     xc contribution           =    -123.13234579 Ry
     ewald contribution        =    1929.96145897 Ry
     electric field correction =       0.00012395 Ry
     smearing contrib. (-TS)   =      -0.00817632 Ry

     convergence has been achieved in  10 iterations

     Forces acting on atoms (Ry/au):


     negative rho (up, down):  2.340E-03 0.000E+00
     atom    1 type  1   force =    -0.00235852    0.00226113   -0.00802790
     atom    2 type  1   force =     0.00295866   -0.00183425   -0.01410993
     atom    3 type  1   force =     0.00570385   -0.00844012    0.02517239
     atom    4 type  1   force =    -0.01985798    0.01627477   -0.04806987
     atom    5 type  2   force =    -0.04109292   -0.08904692    0.08625034
     atom    6 type  3   force =    -0.00140125   -0.01830918   -0.05453981
     atom    7 type  3   force =     0.03616707    0.10067891    0.02453423
     atom    8 type  3   force =     0.01988110   -0.00158433   -0.01120945

     Total force =     0.192178     Total SCF correction =     0.003723
 !ASE
     Check: negative starting charge=   -0.002383
     NEW-OLD atomic charge density approx. for the potential
     Check: negative starting charge=   -0.002405

     negative rho (up, down):  2.414E-03 0.000E+00
 
     Adding external electric field

     Computed dipole along edir(3) : 
        Dipole                0.1359 Ry au,          0.3455 Debye
        Dipole field          0.0009 Ry au
 
        Potential amp.       -0.0644 Ry
        Total length         35.2972 bohr
 

     total cpu time spent up to now is       47.5 secs

     per-process dynamical memory:    31.3 Mb

     Self-consistent Calculation

     iteration #  1     ecut=    29.40 Ry     beta=0.10
     Davidson diagonalization with overlap
     ethr =  4.44E-09,  avg # of iterations =  6.2

     negative rho (up, down):  2.409E-03 0.000E+00
 
     Adding external electric field

     Computed dipole along edir(3) : 
        Dipole                0.1140 Ry au,          0.2897 Debye
        Dipole field          0.0008 Ry au
 
        Potential amp.       -0.0540 Ry
        Total length         35.2972 bohr
 

     total cpu time spent up to now is       50.8 secs

     total energy              =   -1205.81392498 Ry
     Harris-Foulkes estimate   =   -1205.81548415 Ry
     estimated scf accuracy    <       0.01009503 Ry

     iteration #  2     ecut=    29.40 Ry     beta=0.10
     Davidson diagonalization with overlap
     ethr =  1.20E-05,  avg # of iterations =  2.3

     negative rho (up, down):  2.404E-03 0.000E+00
 
     Adding external electric field

     Computed dipole along edir(3) : 
        Dipole                0.1415 Ry au,          0.3596 Debye
        Dipole field          0.0009 Ry au
 
        Potential amp.       -0.0670 Ry
        Total length         35.2972 bohr
 

     total cpu time spent up to now is       52.3 secs

     total energy              =   -1205.81400497 Ry
     Harris-Foulkes estimate   =   -1205.81454895 Ry
     estimated scf accuracy    <       0.00577550 Ry

     iteration #  3     ecut=    29.40 Ry     beta=0.10
     Davidson diagonalization with overlap
     ethr =  6.88E-06,  avg # of iterations =  3.2

     negative rho (up, down):  2.399E-03 0.000E+00
 
     Adding external electric field

     Computed dipole along edir(3) : 
        Dipole                0.1551 Ry au,          0.3942 Debye
        Dipole field          0.0010 Ry au
 
        Potential amp.       -0.0735 Ry
        Total length         35.2972 bohr
 

     total cpu time spent up to now is       53.9 secs

     total energy              =   -1205.81358948 Ry
     Harris-Foulkes estimate   =   -1205.81420048 Ry
     estimated scf accuracy    <       0.00248446 Ry

     iteration #  4     ecut=    29.40 Ry     beta=0.10
     Davidson diagonalization with overlap
     ethr =  2.96E-06,  avg # of iterations =  3.5

     negative rho (up, down):  2.399E-03 0.000E+00
 
     Adding external electric field

     Computed dipole along edir(3) : 
        Dipole                0.1590 Ry au,          0.4041 Debye
        Dipole field          0.0011 Ry au
 
        Potential amp.       -0.0753 Ry
        Total length         35.2972 bohr
 

     total cpu time spent up to now is       55.6 secs

     total energy              =   -1205.81374266 Ry
     Harris-Foulkes estimate   =   -1205.81380455 Ry
     estimated scf accuracy    <       0.00052954 Ry

     iteration #  5     ecut=    29.40 Ry     beta=0.10
     Davidson diagonalization with overlap
     ethr =  6.30E-07,  avg # of iterations =  2.8

     negative rho (up, down):  2.408E-03 0.000E+00
 
     Adding external electric field

     Computed dipole along edir(3) : 
        Dipole                0.1556 Ry au,          0.3956 Debye
        Dipole field          0.0010 Ry au
 
        Potential amp.       -0.0737 Ry
        Total length         35.2972 bohr
 

     total cpu time spent up to now is       57.2 secs

     total energy              =   -1205.81376170 Ry
     Harris-Foulkes estimate   =   -1205.81377894 Ry
     estimated scf accuracy    <       0.00017435 Ry

     iteration #  6     ecut=    29.40 Ry     beta=0.10
     Davidson diagonalization with overlap
     ethr =  2.08E-07,  avg # of iterations =  2.0

     negative rho (up, down):  2.406E-03 0.000E+00
 
     Adding external electric field

     Computed dipole along edir(3) : 
        Dipole                0.1539 Ry au,          0.3913 Debye
        Dipole field          0.0010 Ry au
 
        Potential amp.       -0.0729 Ry
        Total length         35.2972 bohr
 

     total cpu time spent up to now is       58.6 secs

     total energy              =   -1205.81377252 Ry
     Harris-Foulkes estimate   =   -1205.81377676 Ry
     estimated scf accuracy    <       0.00003827 Ry

     iteration #  7     ecut=    29.40 Ry     beta=0.10
     Davidson diagonalization with overlap
     ethr =  4.56E-08,  avg # of iterations =  2.0

     negative rho (up, down):  2.402E-03 0.000E+00
 
     Adding external electric field

     Computed dipole along edir(3) : 
        Dipole                0.1505 Ry au,          0.3826 Debye
        Dipole field          0.0010 Ry au
 
        Potential amp.       -0.0713 Ry
        Total length         35.2972 bohr
 

     total cpu time spent up to now is       60.1 secs

     total energy              =   -1205.81377427 Ry
     Harris-Foulkes estimate   =   -1205.81378304 Ry
     estimated scf accuracy    <       0.00001344 Ry

     iteration #  8     ecut=    29.40 Ry     beta=0.10
     Davidson diagonalization with overlap
     ethr =  1.60E-08,  avg # of iterations =  2.0

     negative rho (up, down):  2.394E-03 0.000E+00
 
     Adding external electric field

     Computed dipole along edir(3) : 
        Dipole                0.1505 Ry au,          0.3824 Debye
        Dipole field          0.0010 Ry au
 
        Potential amp.       -0.0713 Ry
        Total length         35.2972 bohr
 

     total cpu time spent up to now is       61.5 secs

     total energy              =   -1205.81377590 Ry
     Harris-Foulkes estimate   =   -1205.81377588 Ry
     estimated scf accuracy    <       0.00000134 Ry

     iteration #  9     ecut=    29.40 Ry     beta=0.10
     Davidson diagonalization with overlap
     ethr =  1.60E-09,  avg # of iterations =  2.0

     negative rho (up, down):  2.352E-03 0.000E+00
 
     Adding external electric field

     Computed dipole along edir(3) : 
        Dipole                0.1505 Ry au,          0.3825 Debye
        Dipole field          0.0010 Ry au
 
        Potential amp.       -0.0713 Ry
        Total length         35.2972 bohr
 

     total cpu time spent up to now is       63.0 secs

     End of self-consistent calculation

          k = 0.0000 0.0000 0.0000 (  5071 PWs)   bands (ev):

   -90.5433 -90.2791 -90.2213 -90.1644 -54.0444 -54.0177 -53.9551 -53.8055
   -53.7202 -53.6936 -53.6752 -53.6580 -53.6533 -53.6311 -53.5838 -53.5781
   -14.9515  -5.9837  -5.2641  -4.6063  -4.5546  -4.4000  -4.1825  -3.5032
    -3.0887  -3.0342  -3.0002  -2.9214  -2.9037  -2.8006  -2.6450  -2.1391
    -2.0221  -1.8522  -1.7882  -1.5685  -1.5163  -1.4824  -1.2619  -1.1657
    -0.0865   0.6254   1.4293   2.6205   3.4277   4.6227   5.3446   5.8120
     6.4196   6.6945   7.4732   8.0192   8.6270   9.1451   9.3658   9.8551
    10.5372  11.0013  11.1438  11.4288  11.6034  12.2572  12.6200  12.8215
    13.1811  13.7780  13.9734  14.4460  15.0264  15.1164  15.8058  16.5297

          k = 0.0000 0.0998 0.0000 (  5031 PWs)   bands (ev):

   -90.5404 -90.2759 -90.2189 -90.1617 -54.0395 -54.0098 -53.9955 -53.7872
   -53.7576 -53.7030 -53.6929 -53.6839 -53.6507 -53.6353 -53.6118 -53.5831
   -14.4976  -5.9491  -4.7862  -4.2094  -4.1180  -3.8327  -3.7336  -3.4701
    -3.3975  -3.2795  -3.0124  -2.8742  -2.7475  -2.5745  -2.5250  -2.4128
    -2.3071  -2.2197  -2.0623  -1.9514  -1.7790  -1.5820  -1.4362  -0.9363
    -0.6952   1.4859   2.0732   3.2664   4.9273   6.0300   6.5352   6.9633
     7.8512   8.1570   8.3524   8.7296   9.0332   9.4170   9.6910  10.6214
    10.6338  10.7818  11.1055  11.2892  11.9705  12.1692  12.4178  13.2176
    13.3918  13.6057  14.0352  14.3317  14.8401  15.0109  15.4258  15.5501

          k = 0.0000-0.1996 0.0000 (  5048 PWs)   bands (ev):

   -90.5375 -90.2729 -90.2161 -90.1589 -54.0427 -54.0326 -54.0060 -53.8088
   -53.7930 -53.7171 -53.6928 -53.6834 -53.6640 -53.6412 -53.6152 -53.5885
   -13.9403  -6.6722  -4.9019  -4.6345  -4.4631  -4.3972  -4.1556  -3.9523
    -3.7471  -3.4244  -2.9481  -2.7635  -2.5760  -2.2176  -1.9367  -1.7346
    -1.6403  -1.6194  -1.3548  -1.2197  -1.1661  -1.1405  -0.9312  -0.4691
     2.0649   2.4460   2.9810   3.3091   4.7999   5.9179   6.2882   6.5295
     8.0347   8.3571   8.7652   9.8066  10.1126  10.4370  10.6920  10.8609
    11.0526  11.1052  11.2510  11.2856  11.5141  12.2006  12.3187  12.4735
    12.5564  12.6967  13.0654  13.1881  13.5385  13.7767  14.2267  14.4184

          k =-0.0864 0.0499 0.0000 (  5024 PWs)   bands (ev):

   -90.5432 -90.2785 -90.2219 -90.1645 -54.0425 -54.0098 -53.9538 -53.7700
   -53.7154 -53.7132 -53.6910 -53.6623 -53.6605 -53.6357 -53.5822 -53.5777
   -14.9389  -5.8149  -5.0672  -4.2256  -4.0289  -3.9086  -3.7865  -3.4463
    -3.2640  -3.2266  -3.0271  -2.8444  -2.6544  -2.5018  -2.4605  -2.3971
    -2.3012  -2.2268  -2.1626  -2.0419  -1.9790  -1.7581  -1.5006  -1.4537
    -1.0786  -0.1232   1.4360   2.3128   3.6611   5.2202   5.9512   6.2271
     6.6708   6.8506   7.1712   7.8794   8.2567   8.3738   9.1199   9.3166
    10.5031  10.8827  11.2107  11.9501  12.1881  12.6174  13.7956  14.0111
    14.5224  14.6706  15.4850  15.6714  15.9751  16.3885  16.4873  17.0854

          k =-0.0864 0.1497 0.0000 (  5031 PWs)   bands (ev):

   -90.5404 -90.2759 -90.2189 -90.1617 -54.0392 -54.0092 -53.9965 -53.7855
   -53.7588 -53.7082 -53.6906 -53.6817 -53.6505 -53.6353 -53.6119 -53.5832
   -14.4976  -5.9509  -4.7902  -4.2315  -4.0149  -3.7739  -3.7397  -3.5875
    -3.3885  -3.2816  -3.0112  -2.8996  -2.7270  -2.5968  -2.4991  -2.3851
    -2.3594  -2.2134  -2.1156  -1.9608  -1.8639  -1.5615  -1.4717  -0.8787
    -0.6045   1.6527   2.0050   3.3582   4.8217   5.9897   6.5013   6.9043
     7.7555   8.0887   8.3121   8.7215   8.9680   9.4205   9.6545  10.5173
    10.6673  10.9413  11.1514  11.4769  11.9671  12.2144  12.4143  13.3012
    13.5258  13.7106  14.1452  14.4129  14.7939  15.0898  15.4282  15.5009

          k =-0.0864-0.1497 0.0000 (  5038 PWs)   bands (ev):

   -90.5375 -90.2729 -90.2161 -90.1589 -54.0408 -54.0313 -54.0015 -53.7970
   -53.7629 -53.7469 -53.7049 -53.6852 -53.6698 -53.6437 -53.6152 -53.5877
   -13.9479  -6.6755  -4.7910  -4.0987  -3.8262  -3.7490  -3.5949  -3.5425
    -3.5286  -3.3348  -3.0140  -2.9745  -2.8165  -2.7571  -2.6037  -2.5485
    -2.3449  -2.1610  -1.8725  -1.7349  -1.5035  -1.3123  -0.7934  -0.3403
     1.6498   1.9621   3.2936   4.3483   5.5187   7.6604   8.0128   8.1379
     8.2870   8.4861   8.8563   9.1400   9.5431   9.6014   9.8845   9.9084
    10.4945  10.7925  10.9832  11.3731  11.7431  11.9255  12.3156  12.3633
    12.8969  13.5807  13.6341  13.7204  14.2614  14.5799  14.7856  14.8363

     the Fermi energy is     1.8946 ev

!    total energy              =   -1205.81377771 Ry
     Harris-Foulkes estimate   =   -1205.81377593 Ry
     estimated scf accuracy    <       0.00000031 Ry

     The total energy is the sum of the following terms:

     one-electron contribution =   -6033.35275982 Ry
     hartree contribution      =    3014.60853847 Ry
     xc contribution           =    -123.21394290 Ry
     ewald contribution        =    1936.15203680 Ry
     electric field correction =       0.00015196 Ry
     smearing contrib. (-TS)   =      -0.00780222 Ry

     convergence has been achieved in   9 iterations

     Forces acting on atoms (Ry/au):


     negative rho (up, down):  2.352E-03 0.000E+00
     atom    1 type  1   force =    -0.00221645    0.00211198   -0.00839427
     atom    2 type  1   force =     0.00286202   -0.00162628   -0.01306720
     atom    3 type  1   force =     0.00587717   -0.00875822    0.02635710
     atom    4 type  1   force =    -0.02495183    0.01907439   -0.06284320
     atom    5 type  2   force =    -0.02267478   -0.06453818    0.06403170
     atom    6 type  3   force =    -0.00698307    0.00784039   -0.01108308
     atom    7 type  3   force =     0.02796725    0.04870781    0.02291855
     atom    8 type  3   force =     0.02011969   -0.00281189   -0.01791961

     Total force =     0.139389     Total SCF correction =     0.001917
 !ASE
     Check: negative starting charge=   -0.002405
     NEW-OLD atomic charge density approx. for the potential
     Check: negative starting charge=   -0.002359

     negative rho (up, down):  2.312E-03 0.000E+00
 
     Adding external electric field

     Computed dipole along edir(3) : 
        Dipole                0.1505 Ry au,          0.3825 Debye
        Dipole field          0.0010 Ry au
 
        Potential amp.       -0.0713 Ry
        Total length         35.2972 bohr
 

     total cpu time spent up to now is       64.2 secs

     per-process dynamical memory:    31.3 Mb

     Self-consistent Calculation

     iteration #  1     ecut=    29.40 Ry     beta=0.10
     Davidson diagonalization with overlap
     ethr =  1.60E-09,  avg # of iterations =  8.8

     negative rho (up, down):  2.303E-03 0.000E+00
 
     Adding external electric field

     Computed dipole along edir(3) : 
        Dipole                0.0710 Ry au,          0.1804 Debye
        Dipole field          0.0005 Ry au
 
        Potential amp.       -0.0336 Ry
        Total length         35.2972 bohr
 

     total cpu time spent up to now is       68.2 secs

     total energy              =   -1205.83011636 Ry
     Harris-Foulkes estimate   =   -1205.83449970 Ry
     estimated scf accuracy    <       0.03239229 Ry

     iteration #  2     ecut=    29.40 Ry     beta=0.10
     Davidson diagonalization with overlap
     ethr =  3.86E-05,  avg # of iterations =  2.8

     negative rho (up, down):  2.298E-03 0.000E+00
 
     Adding external electric field

     Computed dipole along edir(3) : 
        Dipole                0.1032 Ry au,          0.2624 Debye
        Dipole field          0.0007 Ry au
 
        Potential amp.       -0.0489 Ry
        Total length         35.2972 bohr
 

     total cpu time spent up to now is       69.8 secs

     total energy              =   -1205.83057882 Ry
     Harris-Foulkes estimate   =   -1205.83223128 Ry
     estimated scf accuracy    <       0.02105972 Ry

     iteration #  3     ecut=    29.40 Ry     beta=0.10
     Davidson diagonalization with overlap
     ethr =  2.51E-05,  avg # of iterations =  2.2

     negative rho (up, down):  2.352E-03 0.000E+00
 
     Adding external electric field

     Computed dipole along edir(3) : 
        Dipole                0.0727 Ry au,          0.1848 Debye
        Dipole field          0.0005 Ry au
 
        Potential amp.       -0.0344 Ry
        Total length         35.2972 bohr
 

     total cpu time spent up to now is       71.3 secs

     total energy              =   -1205.82863915 Ry
     Harris-Foulkes estimate   =   -1205.83122409 Ry
     estimated scf accuracy    <       0.01069338 Ry

     iteration #  4     ecut=    29.40 Ry     beta=0.10
     Davidson diagonalization with overlap
     ethr =  1.27E-05,  avg # of iterations =  4.0

     negative rho (up, down):  2.509E-03 0.000E+00
 
     Adding external electric field

     Computed dipole along edir(3) : 
        Dipole                0.0755 Ry au,          0.1920 Debye
        Dipole field          0.0005 Ry au
 
        Potential amp.       -0.0358 Ry
        Total length         35.2972 bohr
 

     total cpu time spent up to now is       73.1 secs

     total energy              =   -1205.82896564 Ry
     Harris-Foulkes estimate   =   -1205.82936942 Ry
     estimated scf accuracy    <       0.00279251 Ry

     iteration #  5     ecut=    29.40 Ry     beta=0.10
     Davidson diagonalization with overlap
     ethr =  3.32E-06,  avg # of iterations =  2.5

     negative rho (up, down):  2.592E-03 0.000E+00
 
     Adding external electric field

     Computed dipole along edir(3) : 
        Dipole                0.0799 Ry au,          0.2030 Debye
        Dipole field          0.0005 Ry au
 
        Potential amp.       -0.0378 Ry
        Total length         35.2972 bohr
 

     total cpu time spent up to now is       74.7 secs

     total energy              =   -1205.82913616 Ry
     Harris-Foulkes estimate   =   -1205.82919381 Ry
     estimated scf accuracy    <       0.00076363 Ry

     iteration #  6     ecut=    29.40 Ry     beta=0.10
     Davidson diagonalization with overlap
     ethr =  9.09E-07,  avg # of iterations =  2.2

     negative rho (up, down):  2.625E-03 0.000E+00
 
     Adding external electric field

     Computed dipole along edir(3) : 
        Dipole                0.0982 Ry au,          0.2495 Debye
        Dipole field          0.0007 Ry au
 
        Potential amp.       -0.0465 Ry
        Total length         35.2972 bohr
 

     total cpu time spent up to now is       76.1 secs

     total energy              =   -1205.82915853 Ry
     Harris-Foulkes estimate   =   -1205.82922248 Ry
     estimated scf accuracy    <       0.00087071 Ry

     iteration #  7     ecut=    29.40 Ry     beta=0.10
     Davidson diagonalization with overlap
     ethr =  9.09E-07,  avg # of iterations =  4.3

     negative rho (up, down):  2.606E-03 0.000E+00
 
     Adding external electric field

     Computed dipole along edir(3) : 
        Dipole                0.1001 Ry au,          0.2544 Debye
        Dipole field          0.0007 Ry au
 
        Potential amp.       -0.0474 Ry
        Total length         35.2972 bohr
 

     total cpu time spent up to now is       78.0 secs

     total energy              =   -1205.82920126 Ry
     Harris-Foulkes estimate   =   -1205.82920261 Ry
     estimated scf accuracy    <       0.00006127 Ry

     iteration #  8     ecut=    29.40 Ry     beta=0.10
     Davidson diagonalization with overlap
     ethr =  7.29E-08,  avg # of iterations =  2.0

     negative rho (up, down):  2.560E-03 0.000E+00
 
     Adding external electric field

     Computed dipole along edir(3) : 
        Dipole                0.1005 Ry au,          0.2555 Debye
        Dipole field          0.0007 Ry au
 
        Potential amp.       -0.0476 Ry
        Total length         35.2972 bohr
 

     total cpu time spent up to now is       79.4 secs

     total energy              =   -1205.82921009 Ry
     Harris-Foulkes estimate   =   -1205.82920634 Ry
     estimated scf accuracy    <       0.00000950 Ry

     iteration #  9     ecut=    29.40 Ry     beta=0.10
     Davidson diagonalization with overlap
     ethr =  1.13E-08,  avg # of iterations =  1.0

     negative rho (up, down):  2.527E-03 0.000E+00
 
     Adding external electric field

     Computed dipole along edir(3) : 
        Dipole                0.0999 Ry au,          0.2539 Debye
        Dipole field          0.0007 Ry au
 
        Potential amp.       -0.0473 Ry
        Total length         35.2972 bohr
 

     total cpu time spent up to now is       80.8 secs

     total energy              =   -1205.82921252 Ry
     Harris-Foulkes estimate   =   -1205.82921120 Ry
     estimated scf accuracy    <       0.00000435 Ry

     iteration # 10     ecut=    29.40 Ry     beta=0.10
     Davidson diagonalization with overlap
     ethr =  5.18E-09,  avg # of iterations =  2.0

     negative rho (up, down):  2.336E-03 0.000E+00
 
     Adding external electric field

     Computed dipole along edir(3) : 
        Dipole                0.0968 Ry au,          0.2460 Debye
        Dipole field          0.0006 Ry au
 
        Potential amp.       -0.0458 Ry
        Total length         35.2972 bohr
 

     total cpu time spent up to now is       82.2 secs

     End of self-consistent calculation

          k = 0.0000 0.0000 0.0000 (  5071 PWs)   bands (ev):

   -90.7094 -90.4180 -90.3822 -90.3150 -54.2343 -54.1522 -54.1076 -53.9505
   -53.8646 -53.8343 -53.8264 -53.8187 -53.8064 -53.7832 -53.7351 -53.7310
   -14.6936  -5.9730  -5.5637  -4.7535  -4.6850  -4.5084  -4.3509  -3.6456
    -3.3504  -3.1917  -3.1595  -3.0685  -3.0644  -2.9002  -2.7889  -2.2484
    -2.1911  -1.9801  -1.8831  -1.7558  -1.6903  -1.6474  -1.4124  -1.3158
     0.1037   0.4635   1.3858   2.4837   3.2118   4.7901   5.3408   5.8264
     6.3375   6.7177   7.1637   7.9091   8.6949   9.2767   9.7435   9.9362
    10.7261  10.8531  11.2440  11.5927  11.7771  12.2527  12.5989  12.8530
    13.1504  13.5648  13.9495  14.5249  14.8129  15.2489  15.7843  16.3656

          k = 0.0000 0.0998 0.0000 (  5031 PWs)   bands (ev):

   -90.7065 -90.4145 -90.3800 -90.3123 -54.2278 -54.1557 -54.1386 -53.9327
   -53.8983 -53.8646 -53.8449 -53.8252 -53.8041 -53.7883 -53.7674 -53.7312
   -14.2483  -6.1845  -5.0149  -4.2418  -4.1090  -3.9559  -3.8435  -3.6256
    -3.5353  -3.2986  -3.1506  -2.9942  -2.9348  -2.7181  -2.6682  -2.5817
    -2.4802  -2.3664  -2.1885  -2.0929  -1.9540  -1.7342  -1.5935  -1.0242
    -0.5714   1.2880   1.8465   3.3239   4.7108   6.1151   6.4956   7.0085
     7.6961   8.0720   8.1882   8.6776   8.9411   9.4628   9.7007  10.4150
    10.6178  10.8109  11.0537  11.3457  11.8469  12.2979  12.5228  13.0906
    13.4111  13.6835  13.9775  14.2757  14.8093  15.0657  15.5191  15.5701

          k = 0.0000-0.1996 0.0000 (  5048 PWs)   bands (ev):

   -90.7036 -90.4114 -90.3773 -90.3095 -54.2247 -54.1953 -54.1385 -53.9536
   -53.9425 -53.8682 -53.8495 -53.8220 -53.8203 -53.7896 -53.7749 -53.7344
   -13.7020  -6.9612  -4.9769  -4.6199  -4.5477  -4.4449  -4.2726  -4.1283
    -3.8609  -3.4545  -2.9640  -2.9294  -2.7271  -2.2943  -2.1137  -1.8672
    -1.7973  -1.7651  -1.5075  -1.3691  -1.3213  -1.2897  -0.9026  -0.5615
     1.8694   2.2298   2.8296   3.1024   4.6745   5.7013   6.1240   6.3827
     8.0008   8.1644   8.5923   9.9978  10.1621  10.4457  10.6777  10.7633
    11.0127  11.1169  11.3599  11.4102  11.5688  12.0653  12.2559  12.4784
    12.5966  12.6947  13.1438  13.1640  13.4811  13.6293  14.0674  14.4002

          k =-0.0864 0.0499 0.0000 (  5024 PWs)   bands (ev):

   -90.7093 -90.4171 -90.3831 -90.3151 -54.2297 -54.1479 -54.1061 -53.9083
   -53.8723 -53.8577 -53.8293 -53.8252 -53.8130 -53.7889 -53.7348 -53.7294
   -14.6817  -5.8396  -5.2502  -4.3453  -4.2075  -4.0587  -3.9605  -3.5988
    -3.4118  -3.4013  -3.1631  -2.8527  -2.7863  -2.6898  -2.6200  -2.5508
    -2.4587  -2.3880  -2.3034  -2.1696  -2.1136  -1.9814  -1.7661  -1.6079
    -1.2064  -0.0183   1.2564   1.9850   3.7681   5.0924   5.9380   6.3942
     6.6835   6.9301   7.2425   7.9344   8.2236   8.6327   9.1571  10.0391
    10.5877  10.8898  11.2221  11.7811  12.1144  12.7613  13.6771  14.0358
    14.4221  14.4736  15.3125  15.4202  15.8311  16.2501  16.3084  16.8194

          k =-0.0864 0.1497 0.0000 (  5031 PWs)   bands (ev):

   -90.7065 -90.4145 -90.3800 -90.3123 -54.2279 -54.1585 -54.1356 -53.9287
   -53.9019 -53.8702 -53.8400 -53.8249 -53.8042 -53.7881 -53.7675 -53.7313
   -14.2485  -6.1827  -5.0442  -4.2486  -4.0458  -3.9102  -3.8195  -3.7126
    -3.4981  -3.2812  -3.1536  -3.0478  -2.8878  -2.7388  -2.6519  -2.5570
    -2.5226  -2.3621  -2.2235  -2.1103  -2.0141  -1.7249  -1.6116  -1.0167
    -0.5142   1.4138   1.7760   3.3476   4.6339   6.1415   6.4857   6.9440
     7.7181   8.0511   8.1843   8.6598   8.8621   9.4368   9.7311  10.4786
    10.6747  10.8180  11.0457  11.4732  11.7977  12.0717  12.7852  13.0728
    13.5796  13.7531  14.0804  14.4583  14.7776  14.8904  15.4678  15.5580

          k =-0.0864-0.1497 0.0000 (  5038 PWs)   bands (ev):

   -90.7036 -90.4115 -90.3773 -90.3095 -54.2222 -54.1930 -54.1358 -53.9395
   -53.9102 -53.9008 -53.8639 -53.8261 -53.8234 -53.7914 -53.7750 -53.7336
   -13.7091  -6.9620  -4.6052  -4.1133  -3.9731  -3.8956  -3.7527  -3.6995
    -3.6963  -3.3262  -3.1506  -3.0655  -2.9597  -2.8885  -2.7359  -2.6929
    -2.5248  -2.2869  -2.0479  -1.9006  -1.6678  -1.4572  -0.8198  -0.3871
     1.5438   1.7420   3.2688   4.1136   5.4361   7.5916   7.7484   7.9911
     8.0552   8.5579   8.8167   9.1239   9.4937   9.5877   9.8380  10.0158
    10.4193  10.7303  10.8888  11.2353  11.5304  11.7810  12.0808  12.4114
    12.8591  13.3341  13.6675  13.8104  14.1769  14.5480  14.7316  14.8811

     the Fermi energy is     1.6825 ev

!    total energy              =   -1205.82922508 Ry
     Harris-Foulkes estimate   =   -1205.82921720 Ry
     estimated scf accuracy    <       0.00000096 Ry

     The total energy is the sum of the following terms:

     one-electron contribution =   -5983.76600389 Ry
     hartree contribution      =    2989.45973706 Ry
     xc contribution           =    -123.18800572 Ry
     ewald contribution        =    1911.67374911 Ry
     electric field correction =       0.00006285 Ry
     smearing contrib. (-TS)   =      -0.00876450 Ry

     convergence has been achieved in  10 iterations

     Forces acting on atoms (Ry/au):


     negative rho (up, down):  2.336E-03 0.000E+00
     atom    1 type  1   force =    -0.00232242    0.00203538   -0.00866639
     atom    2 type  1   force =     0.00299457   -0.00181493   -0.01402671
     atom    3 type  1   force =     0.00515804   -0.00888523    0.02321323
     atom    4 type  1   force =    -0.00384925    0.01361725   -0.01934049
     atom    5 type  2   force =    -0.00111653    0.04824664   -0.00919501
     atom    6 type  3   force =    -0.00554458   -0.03906263   -0.02967718
     atom    7 type  3   force =    -0.01020984   -0.00879387    0.04901681
     atom    8 type  3   force =     0.01489002   -0.00534262    0.00867575

     Total force =     0.096296     Total SCF correction =     0.006723
 !ASE
     Check: negative starting charge=   -0.002359
     NEW-OLD atomic charge density approx. for the potential
     Check: negative starting charge=   -0.002368

     negative rho (up, down):  2.390E-03 0.000E+00
 
     Adding external electric field

     Computed dipole along edir(3) : 
        Dipole                0.0968 Ry au,          0.2460 Debye
        Dipole field          0.0006 Ry au
 
        Potential amp.       -0.0458 Ry
        Total length         35.2972 bohr
 

     total cpu time spent up to now is       83.4 secs

     per-process dynamical memory:    31.3 Mb

     Self-consistent Calculation

     iteration #  1     ecut=    29.40 Ry     beta=0.10
     Davidson diagonalization with overlap
     ethr =  5.18E-09,  avg # of iterations =  6.3

     negative rho (up, down):  2.382E-03 0.000E+00
 
     Adding external electric field

     Computed dipole along edir(3) : 
        Dipole                0.0206 Ry au,          0.0523 Debye
        Dipole field          0.0001 Ry au
 
        Potential amp.       -0.0097 Ry
        Total length         35.2972 bohr
 

     total cpu time spent up to now is       86.8 secs

     total energy              =   -1205.81666511 Ry
     Harris-Foulkes estimate   =   -1205.82186853 Ry
     estimated scf accuracy    <       0.03151247 Ry

     iteration #  2     ecut=    29.40 Ry     beta=0.10
     Davidson diagonalization with overlap
     ethr =  3.75E-05,  avg # of iterations =  3.2

     negative rho (up, down):  2.376E-03 0.000E+00
 
     Adding external electric field

     Computed dipole along edir(3) : 
        Dipole                0.0654 Ry au,          0.1662 Debye
        Dipole field          0.0004 Ry au
 
        Potential amp.       -0.0310 Ry
        Total length         35.2972 bohr
 

     total cpu time spent up to now is       88.4 secs

     total energy              =   -1205.81778734 Ry
     Harris-Foulkes estimate   =   -1205.81968518 Ry
     estimated scf accuracy    <       0.01959707 Ry

     iteration #  3     ecut=    29.40 Ry     beta=0.10
     Davidson diagonalization with overlap
     ethr =  2.33E-05,  avg # of iterations =  2.8

     negative rho (up, down):  2.376E-03 0.000E+00
 
     Adding external electric field

     Computed dipole along edir(3) : 
        Dipole                0.0611 Ry au,          0.1554 Debye
        Dipole field          0.0004 Ry au
 
        Potential amp.       -0.0290 Ry
        Total length         35.2972 bohr
 

     total cpu time spent up to now is       90.0 secs

     total energy              =   -1205.81724700 Ry
     Harris-Foulkes estimate   =   -1205.81863858 Ry
     estimated scf accuracy    <       0.00592824 Ry

     iteration #  4     ecut=    29.40 Ry     beta=0.10
     Davidson diagonalization with overlap
     ethr =  7.06E-06,  avg # of iterations =  2.2

     negative rho (up, down):  2.425E-03 0.000E+00
 
     Adding external electric field

     Computed dipole along edir(3) : 
        Dipole                0.0731 Ry au,          0.1858 Debye
        Dipole field          0.0005 Ry au
 
        Potential amp.       -0.0346 Ry
        Total length         35.2972 bohr
 

     total cpu time spent up to now is       91.5 secs

     total energy              =   -1205.81683597 Ry
     Harris-Foulkes estimate   =   -1205.81754899 Ry
     estimated scf accuracy    <       0.00228914 Ry

     iteration #  5     ecut=    29.40 Ry     beta=0.10
     Davidson diagonalization with overlap
     ethr =  2.73E-06,  avg # of iterations =  3.5

     negative rho (up, down):  2.443E-03 0.000E+00
 
     Adding external electric field

     Computed dipole along edir(3) : 
        Dipole                0.0643 Ry au,          0.1634 Debye
        Dipole field          0.0004 Ry au
 
        Potential amp.       -0.0304 Ry
        Total length         35.2972 bohr
 

     total cpu time spent up to now is       93.2 secs

     total energy              =   -1205.81696759 Ry
     Harris-Foulkes estimate   =   -1205.81711143 Ry
     estimated scf accuracy    <       0.00071993 Ry

     iteration #  6     ecut=    29.40 Ry     beta=0.10
     Davidson diagonalization with overlap
     ethr =  8.57E-07,  avg # of iterations =  3.2

     negative rho (up, down):  2.453E-03 0.000E+00
 
     Adding external electric field

     Computed dipole along edir(3) : 
        Dipole                0.0772 Ry au,          0.1963 Debye
        Dipole field          0.0005 Ry au
 
        Potential amp.       -0.0366 Ry
        Total length         35.2972 bohr
 

     total cpu time spent up to now is       94.9 secs

     total energy              =   -1205.81699251 Ry
     Harris-Foulkes estimate   =   -1205.81712845 Ry
     estimated scf accuracy    <       0.00125202 Ry

     iteration #  7     ecut=    29.40 Ry     beta=0.10
     Davidson diagonalization with overlap
     ethr =  8.57E-07,  avg # of iterations =  3.2

     negative rho (up, down):  2.461E-03 0.000E+00
 
     Adding external electric field

     Computed dipole along edir(3) : 
        Dipole                0.0795 Ry au,          0.2021 Debye
        Dipole field          0.0005 Ry au
 
        Potential amp.       -0.0377 Ry
        Total length         35.2972 bohr
 

     total cpu time spent up to now is       96.5 secs

     total energy              =   -1205.81707968 Ry
     Harris-Foulkes estimate   =   -1205.81707512 Ry
     estimated scf accuracy    <       0.00003791 Ry

     iteration #  8     ecut=    29.40 Ry     beta=0.10
     Davidson diagonalization with overlap
     ethr =  4.51E-08,  avg # of iterations =  2.0

     negative rho (up, down):  2.442E-03 0.000E+00
 
     Adding external electric field

     Computed dipole along edir(3) : 
        Dipole                0.0792 Ry au,          0.2012 Debye
        Dipole field          0.0005 Ry au
 
        Potential amp.       -0.0375 Ry
        Total length         35.2972 bohr
 

     total cpu time spent up to now is       98.0 secs

     total energy              =   -1205.81708458 Ry
     Harris-Foulkes estimate   =   -1205.81708420 Ry
     estimated scf accuracy    <       0.00002487 Ry

     iteration #  9     ecut=    29.40 Ry     beta=0.10
     Davidson diagonalization with overlap
     ethr =  2.96E-08,  avg # of iterations =  1.0

     negative rho (up, down):  2.431E-03 0.000E+00
 
     Adding external electric field

     Computed dipole along edir(3) : 
        Dipole                0.0784 Ry au,          0.1993 Debye
        Dipole field          0.0005 Ry au
 
        Potential amp.       -0.0371 Ry
        Total length         35.2972 bohr
 

     total cpu time spent up to now is       99.3 secs

     total energy              =   -1205.81708435 Ry
     Harris-Foulkes estimate   =   -1205.81708554 Ry
     estimated scf accuracy    <       0.00001289 Ry

     iteration # 10     ecut=    29.40 Ry     beta=0.10
     Davidson diagonalization with overlap
     ethr =  1.53E-08,  avg # of iterations =  1.0

     negative rho (up, down):  2.361E-03 0.000E+00
 
     Adding external electric field

     Computed dipole along edir(3) : 
        Dipole                0.0751 Ry au,          0.1909 Debye
        Dipole field          0.0005 Ry au
 
        Potential amp.       -0.0356 Ry
        Total length         35.2972 bohr
 

     total cpu time spent up to now is      100.6 secs

     End of self-consistent calculation

          k = 0.0000 0.0000 0.0000 (  5071 PWs)   bands (ev):

   -90.7817 -90.4852 -90.4607 -90.3798 -54.3188 -54.2102 -54.1790 -54.0215
   -53.9348 -53.9057 -53.8975 -53.8952 -53.8778 -53.8511 -53.8018 -53.7963
   -14.9579  -6.1009  -5.4933  -4.8472  -4.7451  -4.5820  -4.4146  -3.6952
    -3.3788  -3.2621  -3.2292  -3.1387  -3.1371  -2.9733  -2.8508  -2.3072
    -2.2572  -2.0286  -1.9423  -1.8208  -1.7536  -1.7173  -1.4816  -1.3879
     0.1928   0.3615   1.3708   2.4321   3.1706   4.8844   5.3100   5.8591
     6.3329   6.6472   7.0477   7.9927   8.6625   9.1386   9.5916  10.2530
    10.7615  10.8601  11.3156  11.6371  11.8055  12.2643  12.6182  12.8751
    13.2066  13.4956  13.9479  14.5622  14.8657  15.2856  15.8761  16.3382

          k = 0.0000 0.0998 0.0000 (  5031 PWs)   bands (ev):

   -90.7788 -90.4813 -90.4588 -90.3770 -54.3123 -54.2226 -54.2011 -54.0036
   -53.9663 -53.9440 -53.9192 -53.8910 -53.8772 -53.8554 -53.8362 -53.7954
   -14.5355  -6.0984  -5.1149  -4.3101  -4.1508  -4.0208  -3.8994  -3.6990
    -3.6079  -3.3443  -3.2145  -3.0627  -3.0024  -2.7869  -2.7314  -2.6516
    -2.5425  -2.4352  -2.2531  -2.1600  -2.0152  -1.8015  -1.6579  -1.1329
    -0.6317   1.2044   1.7448   3.2929   4.6636   6.2807   6.4779   7.0708
     7.7860   8.0559   8.1337   8.6439   9.0857   9.5111   9.7869  10.4579
    10.5855  10.7815  11.0589  11.2331  11.8231  12.3050  12.5753  13.3847
    13.4533  13.7218  13.9832  14.3355  14.7349  15.1086  15.5156  15.5827

          k = 0.0000-0.1996 0.0000 (  5048 PWs)   bands (ev):

   -90.7759 -90.4781 -90.4563 -90.3743 -54.3093 -54.2648 -54.1984 -54.0235
   -54.0168 -53.9403 -53.9259 -53.8904 -53.8871 -53.8550 -53.8505 -53.7970
   -14.0259  -6.7767  -5.0951  -4.6882  -4.6139  -4.5047  -4.3382  -4.2005
    -3.9242  -3.5265  -3.0348  -2.9931  -2.7924  -2.3534  -2.1805  -1.9390
    -1.8654  -1.8304  -1.5779  -1.4392  -1.3979  -1.3579  -1.1136  -0.6016
     1.7865   2.1482   2.7528   3.0284   4.5935   5.7522   6.0575   6.3067
     8.1239   8.1516   9.2738  10.0231  10.3162  10.4135  10.6488  10.7881
    11.0023  11.1572  11.4093  11.4809  11.6377  12.1159  12.2627  12.4318
    12.6233  12.7096  13.1237  13.1834  13.5656  13.6271  14.1081  14.3646

          k =-0.0864 0.0499 0.0000 (  5024 PWs)   bands (ev):

   -90.7816 -90.4837 -90.4621 -90.3798 -54.3142 -54.2060 -54.1776 -53.9750
   -53.9504 -53.9258 -53.9054 -53.8944 -53.8856 -53.8573 -53.8017 -53.7947
   -14.9482  -5.8124  -5.3381  -4.4102  -4.2844  -4.1317  -4.0271  -3.6655
    -3.4827  -3.4370  -3.2312  -2.8926  -2.8453  -2.7563  -2.6931  -2.6182
    -2.5318  -2.4535  -2.3710  -2.2402  -2.1658  -2.0281  -1.8341  -1.6788
    -1.2719   0.0253   1.1985   1.8529   3.7439   5.1102   6.0988   6.4833
     6.6788   6.9372   7.3596   7.9857   8.1896   8.5437   9.2526   9.7822
    10.6197  10.8688  11.2547  11.7007  12.0618  12.9725  13.6633  14.0438
    14.4321  14.4789  15.2393  15.7579  16.0846  16.2368  16.2936  16.7199

          k =-0.0864 0.1497 0.0000 (  5031 PWs)   bands (ev):

   -90.7788 -90.4813 -90.4588 -90.3770 -54.3125 -54.2240 -54.1995 -53.9994
   -53.9699 -53.9493 -53.9145 -53.8909 -53.8773 -53.8553 -53.8363 -53.7954
   -14.5356  -6.0997  -5.1487  -4.3072  -4.1116  -3.9787  -3.8642  -3.7698
    -3.5605  -3.3353  -3.2195  -3.1098  -2.9513  -2.8088  -2.7196  -2.6138
    -2.5904  -2.4306  -2.2845  -2.1788  -2.0757  -1.7946  -1.6777  -1.1070
    -0.6128   1.3289   1.6792   3.3146   4.5963   6.2828   6.4729   7.0142
     7.7762   8.0211   8.1430   8.6534   9.0611   9.4234   9.8129  10.5201
    10.7015  10.8391  11.0352  11.3084  11.8401  12.1834  12.7200  13.2362
    13.6163  13.8122  14.0849  14.4549  14.7536  14.9603  15.5121  15.5759

          k =-0.0864-0.1497 0.0000 (  5038 PWs)   bands (ev):

   -90.7759 -90.4781 -90.4563 -90.3743 -54.3068 -54.2626 -54.1957 -54.0074
   -53.9903 -53.9675 -53.9421 -53.8953 -53.8887 -53.8568 -53.8510 -53.7963
   -14.0314  -6.7827  -4.7411  -4.1669  -4.0349  -3.9624  -3.8204  -3.7741
    -3.7682  -3.3993  -3.2161  -3.1163  -3.0283  -2.9583  -2.8056  -2.7667
    -2.5871  -2.3542  -2.1135  -1.9670  -1.7442  -1.5245  -1.0405  -0.4245
     1.4847   1.6622   3.2292   4.0493   5.3870   7.7103   7.8814   7.9758
     8.1916   8.6667   8.8634   9.1785   9.4604   9.6226   9.7707  10.1200
    10.4720  10.7034  10.8783  11.1998  11.5097  11.8276  11.9360  12.4682
    12.9385  13.3089  13.6889  14.0452  14.1595  14.5481  14.6750  14.9120

     the Fermi energy is     1.5966 ev

!    total energy              =   -1205.81709018 Ry
     Harris-Foulkes estimate   =   -1205.81708857 Ry
     estimated scf accuracy    <       0.00000048 Ry

     The total energy is the sum of the following terms:

     one-electron contribution =   -5968.53251617 Ry
     hartree contribution      =    2981.69944701 Ry
     xc contribution           =    -123.24903704 Ry
     ewald contribution        =    1904.27441171 Ry
     electric field correction =       0.00003783 Ry
     smearing contrib. (-TS)   =      -0.00943353 Ry

     convergence has been achieved in  10 iterations

     Forces acting on atoms (Ry/au):


     negative rho (up, down):  2.361E-03 0.000E+00
     atom    1 type  1   force =    -0.00227320    0.00200235   -0.00899053
     atom    2 type  1   force =     0.00300869   -0.00187062   -0.01553625
     atom    3 type  1   force =     0.00511679   -0.00807906    0.02262909
     atom    4 type  1   force =     0.00152025    0.00804455   -0.01026254
     atom    5 type  2   force =     0.04430657   -0.16562969   -0.21702181
     atom    6 type  3   force =    -0.07196939    0.10521952    0.18358357
     atom    7 type  3   force =     0.00641445    0.06273220    0.02648195
     atom    8 type  3   force =     0.01387584   -0.00241924    0.01911651

     Total force =     0.364431     Total SCF correction =     0.002366
 !ASE
     Check: negative starting charge=   -0.002368
     NEW-OLD atomic charge density approx. for the potential
     Check: negative starting charge=   -0.002362

     negative rho (up, down):  2.366E-03 0.000E+00
 
     Adding external electric field

     Computed dipole along edir(3) : 
        Dipole                0.0751 Ry au,          0.1908 Debye
        Dipole field          0.0005 Ry au
 
        Potential amp.       -0.0356 Ry
        Total length         35.2972 bohr
 

     total cpu time spent up to now is      101.8 secs

     per-process dynamical memory:    31.3 Mb

     Self-consistent Calculation

     iteration #  1     ecut=    29.40 Ry     beta=0.10
     Davidson diagonalization with overlap
     ethr =  1.53E-08,  avg # of iterations =  5.3

     negative rho (up, down):  2.361E-03 0.000E+00
 
     Adding external electric field

     Computed dipole along edir(3) : 
        Dipole                0.1361 Ry au,          0.3458 Debye
        Dipole field          0.0009 Ry au
 
        Potential amp.       -0.0644 Ry
        Total length         35.2972 bohr
 

     total cpu time spent up to now is      105.4 secs

     total energy              =   -1205.83249915 Ry
     Harris-Foulkes estimate   =   -1205.83522481 Ry
     estimated scf accuracy    <       0.01680267 Ry

     iteration #  2     ecut=    29.40 Ry     beta=0.10
     Davidson diagonalization with overlap
     ethr =  2.00E-05,  avg # of iterations =  3.3

     negative rho (up, down):  2.358E-03 0.000E+00
 
     Adding external electric field

     Computed dipole along edir(3) : 
        Dipole                0.1016 Ry au,          0.2582 Debye
        Dipole field          0.0007 Ry au
 
        Potential amp.       -0.0481 Ry
        Total length         35.2972 bohr
 

     total cpu time spent up to now is      107.1 secs

     total energy              =   -1205.83336380 Ry
     Harris-Foulkes estimate   =   -1205.83455449 Ry
     estimated scf accuracy    <       0.01178509 Ry

     iteration #  3     ecut=    29.40 Ry     beta=0.10
     Davidson diagonalization with overlap
     ethr =  1.40E-05,  avg # of iterations =  3.0

     negative rho (up, down):  2.353E-03 0.000E+00
 
     Adding external electric field

     Computed dipole along edir(3) : 
        Dipole                0.1006 Ry au,          0.2556 Debye
        Dipole field          0.0007 Ry au
 
        Potential amp.       -0.0476 Ry
        Total length         35.2972 bohr
 

     total cpu time spent up to now is      108.7 secs

     total energy              =   -1205.83329239 Ry
     Harris-Foulkes estimate   =   -1205.83384719 Ry
     estimated scf accuracy    <       0.00250807 Ry

     iteration #  4     ecut=    29.40 Ry     beta=0.10
     Davidson diagonalization with overlap
     ethr =  2.99E-06,  avg # of iterations =  2.0

     negative rho (up, down):  2.366E-03 0.000E+00
 
     Adding external electric field

     Computed dipole along edir(3) : 
        Dipole                0.1021 Ry au,          0.2595 Debye
        Dipole field          0.0007 Ry au
 
        Potential amp.       -0.0484 Ry
        Total length         35.2972 bohr
 

     total cpu time spent up to now is      110.2 secs

     total energy              =   -1205.83300644 Ry
     Harris-Foulkes estimate   =   -1205.83337738 Ry
     estimated scf accuracy    <       0.00107071 Ry

     iteration #  5     ecut=    29.40 Ry     beta=0.10
     Davidson diagonalization with overlap
     ethr =  1.27E-06,  avg # of iterations =  2.0

     negative rho (up, down):  2.379E-03 0.000E+00
 
     Adding external electric field

     Computed dipole along edir(3) : 
        Dipole                0.0910 Ry au,          0.2314 Debye
        Dipole field          0.0006 Ry au
 
        Potential amp.       -0.0431 Ry
        Total length         35.2972 bohr
 

     total cpu time spent up to now is      111.7 secs

     total energy              =   -1205.83309099 Ry
     Harris-Foulkes estimate   =   -1205.83314058 Ry
     estimated scf accuracy    <       0.00021871 Ry

     iteration #  6     ecut=    29.40 Ry     beta=0.10
     Davidson diagonalization with overlap
     ethr =  2.60E-07,  avg # of iterations =  3.3

     negative rho (up, down):  2.378E-03 0.000E+00
 
     Adding external electric field

[...]

     Computed dipole along edir(3) : 
        Dipole               -0.0037 Ry au,         -0.0094 Debye
        Dipole field         -0.0000 Ry au
 
        Potential amp.        0.0018 Ry
        Total length         35.2972 bohr
 

     total cpu time spent up to now is      566.6 secs

     End of self-consistent calculation

          k = 0.0000 0.0000 0.0000 (  5071 PWs)   bands (ev):

   -90.6866 -90.5648 -90.5499 -90.5329 -54.2045 -54.1344 -54.0949 -54.0882
   -54.0316 -54.0071 -53.9970 -53.9883 -53.9746 -53.9581 -53.9522 -53.9343
   -14.7507  -6.3997  -5.1713  -4.7926  -4.7082  -4.5450  -4.3920  -3.6793
    -3.4304  -3.3167  -3.3053  -3.2101  -3.2047  -2.9854  -2.9366  -2.3551
    -2.3423  -2.2202  -2.0127  -1.9482  -1.8714  -1.8193  -1.5507  -1.4596
    -0.0139   0.3503   1.7453   2.0354   2.8066   5.0100   5.2841   5.6118
     6.1955   6.7332   7.1206   8.5422   8.7642   9.6400   9.9882  10.2213
    10.6908  10.8983  11.2937  11.6141  11.8349  12.4597  12.6006  12.8829
    13.0935  13.3684  13.9578  14.2725  15.1540  15.3748  15.6082  16.3732

          k = 0.0000 0.0998 0.0000 (  5031 PWs)   bands (ev):

   -90.6835 -90.5618 -90.5460 -90.5315 -54.1959 -54.1303 -54.1207 -54.0723
   -54.0472 -54.0362 -54.0209 -54.0159 -53.9941 -53.9818 -53.9538 -53.9310
   -14.3324  -5.7794  -5.2006  -4.3286  -4.1619  -4.0688  -3.9540  -3.7878
    -3.6060  -3.4936  -3.3270  -3.0970  -3.0116  -2.8400  -2.8144  -2.7085
    -2.6152  -2.5115  -2.3558  -2.2673  -2.1490  -1.8779  -1.7543  -1.0870
    -0.7511   1.1283   1.7045   3.2577   4.7069   6.4026   6.6288   7.0438
     7.7736   7.9641   8.0486   8.7932   9.1018   9.7065   9.8343  10.2903
    10.5123  10.9682  11.1732  11.3624  11.7541  12.1649  12.3567  13.0540
    13.4400  13.8155  14.1421  14.4141  14.7708  15.1407  15.5472  15.6893

          k = 0.0000-0.1996 0.0000 (  5048 PWs)   bands (ev):

   -90.6805 -90.5588 -90.5428 -90.5292 -54.2032 -54.1717 -54.1238 -54.0857
   -54.0817 -54.0626 -54.0317 -54.0075 -53.9954 -53.9823 -53.9607 -53.9293
   -13.8309  -6.2477  -5.6446  -4.6897  -4.6431  -4.4905  -4.3953  -4.2469
    -3.7677  -3.5314  -3.0611  -2.9480  -2.8257  -2.6645  -2.2897  -2.0018
    -1.9708  -1.9629  -1.5648  -1.5404  -1.4602  -1.4560  -1.2066  -0.6072
     1.4565   2.0963   2.6302   2.9215   5.1121   5.5161   5.9931   6.6966
     8.1513   8.7649   9.0662   9.7641  10.0499  10.4276  10.5432  10.8170
    11.2066  11.2454  11.3377  11.5211  11.7652  12.0335  12.2765  12.4503
    12.5062  12.7435  13.2024  13.3046  13.3572  13.5821  13.9190  14.4523

          k =-0.0864 0.0499 0.0000 (  5024 PWs)   bands (ev):

   -90.6863 -90.5650 -90.5480 -90.5349 -54.1893 -54.1204 -54.0868 -54.0558
   -54.0430 -54.0253 -54.0146 -53.9975 -53.9789 -53.9672 -53.9512 -53.9332
   -14.7404  -5.9619  -4.9426  -4.3812  -4.2117  -4.1766  -4.1566  -3.7529
    -3.5995  -3.4013  -3.3546  -2.9360  -2.8555  -2.8286  -2.7568  -2.6876
    -2.5773  -2.5604  -2.4819  -2.3008  -2.2523  -2.1303  -1.8921  -1.8310
    -1.1378  -0.4534   0.9654   1.9245   3.5050   5.3702   6.0608   6.7034
     6.7808   6.9344   7.4807   8.2296   8.2992   8.7532   9.4844  10.2921
    10.5255  10.8844  11.4306  11.6106  11.9819  12.4611  13.3840  13.9701
    14.3266  14.6380  14.7058  15.4898  15.7716  16.0905  16.8540  17.0019

          k =-0.0864 0.1497 0.0000 (  5031 PWs)   bands (ev):

   -90.6835 -90.5618 -90.5460 -90.5315 -54.1908 -54.1417 -54.1154 -54.0735
   -54.0477 -54.0314 -54.0218 -54.0179 -53.9936 -53.9814 -53.9537 -53.9310
   -14.3327  -5.7502  -5.1371  -4.3377  -4.1691  -4.1012  -3.9291  -3.8393
    -3.6770  -3.4685  -3.2892  -3.1707  -2.9666  -2.8692  -2.8101  -2.7281
    -2.6174  -2.5077  -2.3398  -2.2553  -2.2026  -1.8690  -1.7737  -1.1213
    -0.6594   1.1834   1.7063   3.3015   4.7005   6.3324   6.6531   6.9513
     7.8391   7.9403   8.0503   8.7182   9.1205   9.5885   9.9118  10.4167
    10.5586  10.9486  11.1923  11.4868  11.7894  12.1942  12.4874  13.2546
    13.5497  13.7372  14.0972  14.2946  14.5519  14.9846  15.5783  15.6543

          k =-0.0864-0.1497 0.0000 (  5038 PWs)   bands (ev):

   -90.6805 -90.5588 -90.5429 -90.5292 -54.1948 -54.1596 -54.1121 -54.0901
   -54.0585 -54.0571 -54.0438 -54.0322 -54.0183 -53.9818 -53.9597 -53.9287
   -13.8365  -6.2192  -5.2939  -4.1454  -4.0837  -3.9910  -3.9200  -3.8660
    -3.6919  -3.3821  -3.2720  -3.1890  -3.1465  -3.0275  -2.8558  -2.8234
    -2.6440  -2.2917  -2.2609  -2.0896  -1.8504  -1.6684  -1.0288  -0.4149
     1.3841   1.5121   3.2894   3.9103   6.1668   7.3301   7.8698   7.9229
     8.2059   8.4128   8.9545   9.1060   9.4637   9.6312   9.8945  10.1306
    10.4454  10.6840  10.9463  11.2281  11.4248  11.6452  11.8742  12.5442
    12.9797  13.0686  13.4025  13.8405  14.3655  14.3897  14.6407  14.8554

     the Fermi energy is     1.5553 ev

!    total energy              =   -1205.86444753 Ry
     Harris-Foulkes estimate   =   -1205.86444751 Ry
     estimated scf accuracy    <       0.00000016 Ry

     The total energy is the sum of the following terms:

     one-electron contribution =   -5981.88041708 Ry
     hartree contribution      =    2988.34686394 Ry
     xc contribution           =    -123.23963069 Ry
     ewald contribution        =    1910.91709133 Ry
     electric field correction =       0.00000009 Ry
     smearing contrib. (-TS)   =      -0.00835512 Ry

     convergence has been achieved in   6 iterations

     Forces acting on atoms (Ry/au):


     negative rho (up, down):  2.421E-03 0.000E+00
     atom    1 type  1   force =    -0.00186273    0.00117959   -0.00117772
     atom    2 type  1   force =     0.00126421   -0.00060928   -0.01989421
     atom    3 type  1   force =    -0.01684473    0.00472468    0.00860743
     atom    4 type  1   force =     0.01747635   -0.00448707    0.01350908
     atom    5 type  2   force =    -0.00528750    0.00370041   -0.00483604
     atom    6 type  3   force =     0.00076133   -0.00116710   -0.00094551
     atom    7 type  3   force =    -0.00035767   -0.00149242    0.00027113
     atom    8 type  3   force =     0.00485073   -0.00184881    0.00446585

     Total force =     0.037542     Total SCF correction =     0.002288
 !ASE
     Check: negative starting charge=   -0.002400
     NEW-OLD atomic charge density approx. for the potential
     Check: negative starting charge=   -0.002402

     negative rho (up, down):  2.429E-03 0.000E+00
 
     Adding external electric field

     Computed dipole along edir(3) : 
        Dipole               -0.0037 Ry au,         -0.0094 Debye
        Dipole field         -0.0000 Ry au
 
        Potential amp.        0.0018 Ry
        Total length         35.2972 bohr
 

     total cpu time spent up to now is      567.9 secs

     per-process dynamical memory:    31.3 Mb

     Self-consistent Calculation

     iteration #  1     ecut=    29.40 Ry     beta=0.10
     Davidson diagonalization with overlap
     ethr =  1.49E-09,  avg # of iterations =  4.0

     negative rho (up, down):  2.429E-03 0.000E+00
 
     Adding external electric field

     Computed dipole along edir(3) : 
        Dipole               -0.0024 Ry au,         -0.0061 Debye
        Dipole field         -0.0000 Ry au
 
        Potential amp.        0.0011 Ry
        Total length         35.2972 bohr
 

     total cpu time spent up to now is      570.6 secs

     total energy              =   -1205.86446397 Ry
     Harris-Foulkes estimate   =   -1205.86446924 Ry
     estimated scf accuracy    <       0.00006373 Ry

     iteration #  2     ecut=    29.40 Ry     beta=0.10
     Davidson diagonalization with overlap
     ethr =  7.59E-08,  avg # of iterations =  1.0

     negative rho (up, down):  2.428E-03 0.000E+00
 
     Adding external electric field

     Computed dipole along edir(3) : 
        Dipole               -0.0036 Ry au,         -0.0092 Debye
        Dipole field         -0.0000 Ry au
 
        Potential amp.        0.0017 Ry
        Total length         35.2972 bohr
 

     total cpu time spent up to now is      571.9 secs

     total energy              =   -1205.86446109 Ry
     Harris-Foulkes estimate   =   -1205.86446479 Ry
     estimated scf accuracy    <       0.00004738 Ry

     iteration #  3     ecut=    29.40 Ry     beta=0.10
     Davidson diagonalization with overlap
     ethr =  5.64E-08,  avg # of iterations =  1.0

     negative rho (up, down):  2.427E-03 0.000E+00
 
     Adding external electric field

     Computed dipole along edir(3) : 
        Dipole               -0.0020 Ry au,         -0.0050 Debye
        Dipole field         -0.0000 Ry au
 
        Potential amp.        0.0009 Ry
        Total length         35.2972 bohr
 

     total cpu time spent up to now is      573.2 secs

     total energy              =   -1205.86445481 Ry
     Harris-Foulkes estimate   =   -1205.86446248 Ry
     estimated scf accuracy    <       0.00004102 Ry

     iteration #  4     ecut=    29.40 Ry     beta=0.10
     Davidson diagonalization with overlap
     ethr =  4.88E-08,  avg # of iterations =  2.0

     negative rho (up, down):  2.426E-03 0.000E+00
 
     Adding external electric field

     Computed dipole along edir(3) : 
        Dipole               -0.0025 Ry au,         -0.0064 Debye
        Dipole field         -0.0000 Ry au
 
        Potential amp.        0.0012 Ry
        Total length         35.2972 bohr
 

     total cpu time spent up to now is      574.7 secs

     total energy              =   -1205.86445804 Ry
     Harris-Foulkes estimate   =   -1205.86445806 Ry
     estimated scf accuracy    <       0.00000554 Ry

     iteration #  5     ecut=    29.40 Ry     beta=0.10
     Davidson diagonalization with overlap
     ethr =  6.59E-09,  avg # of iterations =  1.0

     negative rho (up, down):  2.426E-03 0.000E+00
 
     Adding external electric field

     Computed dipole along edir(3) : 
        Dipole               -0.0039 Ry au,         -0.0098 Debye
        Dipole field         -0.0000 Ry au
 
        Potential amp.        0.0018 Ry
        Total length         35.2972 bohr
 

     total cpu time spent up to now is      576.0 secs

     total energy              =   -1205.86445812 Ry
     Harris-Foulkes estimate   =   -1205.86445813 Ry
     estimated scf accuracy    <       0.00000218 Ry

     iteration #  6     ecut=    29.40 Ry     beta=0.10
     Davidson diagonalization with overlap
     ethr =  2.60E-09,  avg # of iterations =  2.0

     negative rho (up, down):  2.425E-03 0.000E+00
 
     Adding external electric field

     Computed dipole along edir(3) : 
        Dipole               -0.0044 Ry au,         -0.0112 Debye
        Dipole field         -0.0000 Ry au
 
        Potential amp.        0.0021 Ry
        Total length         35.2972 bohr
 

     total cpu time spent up to now is      577.4 secs

     End of self-consistent calculation

          k = 0.0000 0.0000 0.0000 (  5071 PWs)   bands (ev):

   -90.6839 -90.5736 -90.5503 -90.5334 -54.2035 -54.1329 -54.0947 -54.0863
   -54.0402 -54.0130 -54.0021 -53.9898 -53.9750 -53.9585 -53.9549 -53.9351
   -14.7600  -6.4154  -5.1791  -4.7977  -4.7102  -4.5478  -4.3958  -3.6803
    -3.4346  -3.3190  -3.3081  -3.2104  -3.2057  -2.9882  -2.9380  -2.3571
    -2.3449  -2.2190  -2.0129  -1.9484  -1.8743  -1.8218  -1.5531  -1.4603
    -0.0149   0.3541   1.7423   2.0373   2.8025   5.0173   5.2849   5.6177
     6.2016   6.7395   7.1246   8.5379   8.7778   9.6337   9.9821  10.2264
    10.6963  10.9007  11.2942  11.6156  11.8376  12.4600  12.5985  12.8857
    13.0924  13.3685  13.9554  14.2702  15.1534  15.3666  15.6071  16.3700

          k = 0.0000 0.0998 0.0000 (  5031 PWs)   bands (ev):

   -90.6807 -90.5708 -90.5462 -90.5320 -54.1943 -54.1274 -54.1190 -54.0732
   -54.0538 -54.0443 -54.0226 -54.0171 -53.9988 -53.9827 -53.9559 -53.9319
   -14.3422  -5.7992  -5.2095  -4.3308  -4.1647  -4.0702  -3.9573  -3.7870
    -3.6071  -3.4973  -3.3282  -3.0988  -3.0152  -2.8417  -2.8161  -2.7097
    -2.6176  -2.5136  -2.3562  -2.2687  -2.1502  -1.8806  -1.7557  -1.0869
    -0.7534   1.1287   1.7056   3.2605   4.7080   6.4092   6.6314   7.0443
     7.7738   7.9654   8.0487   8.7949   9.1071   9.7091   9.8371  10.2881
    10.5132  10.9692  11.1718  11.3619  11.7563  12.1689  12.3590  13.0552
    13.4417  13.8167  14.1407  14.4148  14.7713  15.1412  15.5498  15.6912

          k = 0.0000-0.1996 0.0000 (  5048 PWs)   bands (ev):

   -90.6777 -90.5679 -90.5429 -90.5298 -54.2016 -54.1701 -54.1229 -54.0878
   -54.0825 -54.0655 -54.0401 -54.0079 -53.9983 -53.9886 -53.9609 -53.9302
   -13.8415  -6.2535  -5.6598  -4.6924  -4.6436  -4.4923  -4.3975  -4.2476
    -3.7737  -3.5336  -3.0659  -2.9497  -2.8343  -2.6646  -2.2894  -2.0053
    -1.9707  -1.9648  -1.5647  -1.5451  -1.4617  -1.4561  -1.2137  -0.6000
     1.4509   2.0953   2.6294   2.9205   5.1092   5.5158   5.9920   6.6948
     8.1521   8.7873   9.0864   9.7649  10.0523  10.4294  10.5427  10.8206
    11.2096  11.2481  11.3379  11.5223  11.7693  12.0360  12.2755  12.4516
    12.5062  12.7438  13.1974  13.3038  13.3540  13.5848  13.9248  14.4541

          k =-0.0864 0.0499 0.0000 (  5024 PWs)   bands (ev):

   -90.6835 -90.5739 -90.5483 -90.5354 -54.1870 -54.1177 -54.0839 -54.0641
   -54.0453 -54.0273 -54.0200 -54.0036 -53.9796 -53.9676 -53.9538 -53.9342
   -14.7496  -5.9792  -4.9529  -4.3840  -4.2164  -4.1786  -4.1607  -3.7539
    -3.6034  -3.4025  -3.3578  -2.9370  -2.8541  -2.8332  -2.7596  -2.6910
    -2.5774  -2.5633  -2.4839  -2.3029  -2.2527  -2.1314  -1.8917  -1.8347
    -1.1386  -0.4450   0.9627   1.9316   3.5149   5.3763   6.0623   6.7041
     6.7852   6.9339   7.4850   8.2316   8.2998   8.7522   9.4884  10.2900
    10.5216  10.8841  11.4299  11.6069  11.9805  12.4593  13.3842  13.9700
    14.3324  14.6396  14.7014  15.4835  15.7697  16.0889  16.8543  17.0130

          k =-0.0864 0.1497 0.0000 (  5031 PWs)   bands (ev):

   -90.6807 -90.5708 -90.5462 -90.5320 -54.1889 -54.1400 -54.1130 -54.0760
   -54.0541 -54.0366 -54.0251 -54.0190 -53.9985 -53.9821 -53.9557 -53.9320
   -14.3425  -5.7689  -5.1456  -4.3396  -4.1720  -4.1029  -3.9319  -3.8394
    -3.6801  -3.4735  -3.2896  -3.1744  -2.9697  -2.8706  -2.8114  -2.7286
    -2.6207  -2.5091  -2.3412  -2.2573  -2.2039  -1.8704  -1.7758  -1.1203
    -0.6596   1.1827   1.7078   3.3064   4.7020   6.3370   6.6562   6.9523
     7.8386   7.9389   8.0522   8.7192   9.1271   9.5898   9.9149  10.4204
    10.5588  10.9491  11.1904  11.4862  11.7902  12.2007  12.4846  13.2559
    13.5494  13.7370  14.0967  14.2961  14.5533  14.9887  15.5802  15.6570

          k =-0.0864-0.1497 0.0000 (  5038 PWs)   bands (ev):

   -90.6778 -90.5679 -90.5429 -90.5298 -54.1924 -54.1568 -54.1097 -54.0972
   -54.0592 -54.0584 -54.0523 -54.0324 -54.0200 -53.9899 -53.9599 -53.9297
   -13.8471  -6.2238  -5.3073  -4.1512  -4.0859  -3.9952  -3.9222  -3.8683
    -3.7000  -3.3884  -3.2710  -3.1931  -3.1463  -3.0280  -2.8564  -2.8244
    -2.6478  -2.2967  -2.2622  -2.0904  -1.8519  -1.6677  -1.0362  -0.4099
     1.3833   1.5131   3.2916   3.9123   6.1691   7.3299   7.8672   7.9173
     8.2038   8.4201   8.9604   9.1024   9.4699   9.6324   9.8957  10.1309
    10.4504  10.6862  10.9442  11.2292  11.4282  11.6478  11.8787  12.5482
    12.9817  13.0679  13.4027  13.8434  14.3704  14.3941  14.6418  14.8597

     the Fermi energy is     1.5550 ev

!    total energy              =   -1205.86445839 Ry
     Harris-Foulkes estimate   =   -1205.86445825 Ry
     estimated scf accuracy    <       0.00000027 Ry

     The total energy is the sum of the following terms:

     one-electron contribution =   -5983.96325088 Ry
     hartree contribution      =    2989.38722346 Ry
     xc contribution           =    -123.24233315 Ry
     ewald contribution        =    1911.96221000 Ry
     electric field correction =       0.00000013 Ry
     smearing contrib. (-TS)   =      -0.00830795 Ry

     convergence has been achieved in   6 iterations

     Forces acting on atoms (Ry/au):


     negative rho (up, down):  2.425E-03 0.000E+00
     atom    1 type  1   force =    -0.00194475    0.00119556   -0.00116765
     atom    2 type  1   force =     0.00132692   -0.00067136   -0.01994578
     atom    3 type  1   force =    -0.01694759    0.00480072    0.00846570
     atom    4 type  1   force =     0.01792598   -0.00482480    0.01254654
     atom    5 type  2   force =    -0.00418693    0.00166379   -0.00415534
     atom    6 type  3   force =    -0.00005904   -0.00032929   -0.00021031
     atom    7 type  3   force =    -0.00001209   -0.00055234    0.00020898
     atom    8 type  3   force =     0.00389750   -0.00128229    0.00425786

     Total force =     0.036927     Total SCF correction =     0.002987
 !ASE
 
     init_run     :      1.06s CPU      1.09s WALL (       1 calls)
     electrons    :    526.08s CPU    531.47s WALL (      39 calls)
     update_pot   :     16.54s CPU     16.77s WALL (      38 calls)
     forces       :     23.38s CPU     23.55s WALL (      39 calls)

     Called by init_run:
     wfcinit      :      0.32s CPU      0.33s WALL (       1 calls)
     potinit      :      0.14s CPU      0.14s WALL (       1 calls)

     Called by electrons:
     c_bands      :    401.90s CPU    405.93s WALL (     317 calls)
     sum_band     :     78.90s CPU     79.74s WALL (     317 calls)
     v_of_rho     :      8.40s CPU      8.55s WALL (     356 calls)
     newd         :     38.18s CPU     38.34s WALL (     356 calls)
     mix_rho      :      2.00s CPU      2.01s WALL (     317 calls)

     Called by c_bands:
     init_us_2    :      2.21s CPU      2.30s WALL (    4044 calls)
     cegterg      :    389.57s CPU    393.40s WALL (    1902 calls)

     Called by *egterg:
     h_psi        :    177.56s CPU    180.09s WALL (    6435 calls)
     s_psi        :     11.74s CPU     11.81s WALL (    6435 calls)
     g_psi        :      1.69s CPU      1.76s WALL (    4527 calls)
     cdiaghg      :    106.67s CPU    107.21s WALL (    6201 calls)

     Called by h_psi:
     add_vuspsi   :     12.20s CPU     12.22s WALL (    6435 calls)

     General routines
     calbec       :     21.99s CPU     22.18s WALL (    8571 calls)
     fft          :      7.71s CPU      7.85s WALL (    6007 calls)
     ffts         :      0.20s CPU      0.22s WALL (     673 calls)
     fftw         :    150.73s CPU    152.67s WALL (  765826 calls)
     interpolate  :      1.05s CPU      1.10s WALL (     673 calls)
 
     Parallel routines
     fft_scatter  :     71.07s CPU     70.97s WALL (  772506 calls)
 
     PWSCF        :  9m31.35s CPU     9m38.26s WALL

 
   This run was terminated on:   7:18:35  18Feb2017            

=------------------------------------------------------------------------------=
   JOB DONE.
=------------------------------------------------------------------------------=
Job  /afs/slac/g/suncat/bin/suncat-tsmpirun -x LD_LIBRARY_PATH -wdir /scratch/qe259882_ZOMhZ pw.x -in pw.inp

TID   HOST_NAME   COMMAND_LINE            STATUS            TERMINATION_TIME
===== ========== ================  =======================  ===================
00000 suncat1015 pw.x -in pw.inp   Done                     02/18/2017 07:18:35
00001 suncat1015 pw.x -in pw.inp   Done                     02/18/2017 07:18:35
00002 suncat1015 pw.x -in pw.inp   Done                     02/18/2017 07:18:35
00003 suncat1015 pw.x -in pw.inp   Done                     02/18/2017 07:18:35
00004 suncat1015 pw.x -in pw.inp   Done                     02/18/2017 07:18:35
00005 suncat1015 pw.x -in pw.inp   Done                     02/18/2017 07:18:35
00006 suncat1015 pw.x -in pw.inp   Done                     02/18/2017 07:18:35
00007 suncat1015 pw.x -in pw.inp   Done                     02/18/2017 07:18:35
00008 suncat1015 pw.x -in pw.inp   Done                     02/18/2017 07:18:35
00009 suncat1015 pw.x -in pw.inp   Done                     02/18/2017 07:18:35
00010 suncat1015 pw.x -in pw.inp   Done                     02/18/2017 07:18:35
00011 suncat1015 pw.x -in pw.inp   Done                     02/18/2017 07:18:35
