  python dir          : /nfs/slac/g/suncatfs/aidank/software/ase-espresso/lib/python2.7/site-packages/espresso
  espresso dir        : /nfs/slac/g/suncatfs/aidank/software/espresso-qeforge/bin
  pseudo dir          : /nfs/slac/g/suncatfs/aidank/scripts/gbrv/
  ase-espresso py git : c91b4c2-git



     Program PWSCF v.5.0.2 (svn rev. 10453) starts on 18Feb2017 at  6:24:49 

     This program is part of the open-source Quantum ESPRESSO suite
     for quantum simulation of materials; please cite
         "P. Giannozzi et al., J. Phys.:Condens. Matter 21 395502 (2009);
          URL http://www.quantum-espresso.org", 
     in publications or presentations arising from this work. More details at
     http://www.quantum-espresso.org/quote

     Parallel version (MPI), running on    12 processors
     R & G space division:  proc/nbgrp/npool/nimage =      12
     Reading input from pw.inp
     Message from routine read_cards :
     DEPRECATED: no units specified in CELL_PARAMETERS card

     Current dimensions of program PWSCF are:
     Max number of different atomic species (ntypx) = 10
     Max number of k-points (npk) =  40000
     Max angular momentum in pseudopotentials (lmaxx) =  3
     Presently no symmetry can be used with electric field


     IMPORTANT: XC functional enforced from input :
     Exchange-correlation      = PBE ( 1  4  3  4 0)
     Any further DFT definition will be discarded
     Please, verify this is what you really want


     Subspace diagonalization in iterative solution of the eigenvalue problem:
     a serial algorithm will be used

 
     Parallelization info
     --------------------
     sticks:   dense  smooth     PW     G-vecs:    dense   smooth      PW
     Min          81      39     12                 9513     3338     586
     Max          82      40     16                 9522     3378     597
     Sum         981     479    161               114205    40347    7083
 


     bravais-lattice index     =            0
     lattice parameter (alat)  =       1.8897  a.u.
     unit-cell volume          =    1872.8848 (a.u.)^3
     number of atoms/cell      =            8
     number of atomic types    =            3
     number of electrons       =        84.00
     number of Kohn-Sham states=           72
     kinetic-energy cutoff     =      29.3995  Ry
     charge density cutoff     =     235.1957  Ry
     convergence threshold     =      1.0E-06
     mixing beta               =       0.1000
     number of iterations used =           15  plain     mixing
     Exchange-correlation      = PBE ( 1  4  3  4 0)
     nstep                     =           50


     celldm(1)=   1.889726  celldm(2)=   0.000000  celldm(3)=   0.000000
     celldm(4)=   0.000000  celldm(5)=   0.000000  celldm(6)=   0.000000

     crystal axes: (cart. coord. in units of alat)
               a(1) = (   5.784133   0.000000   0.000000 )  
               a(2) = (   1.446033   2.504603   0.000000 )  
               a(3) = (   0.000000   0.000000  19.157428 )  

     reciprocal axes: (cart. coord. in units 2 pi/alat)
               b(1) = (  0.172887 -0.099816  0.000000 )  
               b(2) = (  0.000000  0.399265  0.000000 )  
               b(3) = (  0.000000  0.000000  0.052199 )  


     PseudoPot. # 1 for Ag read from file:
     /nfs/slac/g/suncatfs/aidank/scripts/gbrv/Ag.UPF
     MD5 check sum: d66d668201baa78d5eb5b04ef7011058
     Pseudo is Ultrasoft + core correction, Zval = 19.0
     Generated by new atomic code, or converted to UPF format
     Using radial grid of  887 points,  6 beta functions with: 
                l(1) =   0
                l(2) =   0
                l(3) =   1
                l(4) =   1
                l(5) =   2
                l(6) =   2
     Q(r) pseudized with  6 coefficients,  rinner =    1.300   1.300   1.300
                                                       1.300   1.300

     PseudoPot. # 2 for N  read from file:
     /nfs/slac/g/suncatfs/aidank/scripts/gbrv/N.UPF
     MD5 check sum: 95339753478d7afb44899504a8723017
     Pseudo is Ultrasoft + core correction, Zval =  5.0
     Generated by new atomic code, or converted to UPF format
     Using radial grid of  729 points,  4 beta functions with: 
                l(1) =   0
                l(2) =   0
                l(3) =   1
                l(4) =   1
     Q(r) pseudized with  8 coefficients,  rinner =    0.900   0.900   0.900


     PseudoPot. # 3 for H  read from file:
     /nfs/slac/g/suncatfs/aidank/scripts/gbrv/H.UPF
     MD5 check sum: 761ae9a214b05c3daf00ab9f6b793d6f
     Pseudo is Ultrasoft, Zval =  1.0
     Generated by new atomic code, or converted to UPF format
     Using radial grid of  615 points,  2 beta functions with: 
                l(1) =   0
                l(2) =   0
     Q(r) pseudized with  8 coefficients,  rinner =    0.700

     atomic species   valence    mass     pseudopotential
        Ag1           19.00   107.86800     Ag( 1.00)
        N1             5.00    14.00670     N ( 1.00)
        H1             1.00     1.00794     H ( 1.00)

     No symmetry found



   Cartesian axes

     site n.     atom                  positions (alat units)
         1           Ag1 tau(   1) = (   5.4594866   0.7084522   7.1205000  )
         2           Ag1 tau(   2) = (   2.5674199   0.7084522   7.1205000  )
         3           Ag1 tau(   3) = (   1.1213865   1.5433200   9.4818626  )
         4           Ag1 tau(   4) = (   4.0134533   1.5433200   9.4818626  )
         5           N1  tau(   5) = (   4.5562992   1.6351947  11.4514038  )
         6           H1  tau(   6) = (   4.3946244   1.9351793  12.3905645  )
         7           H1  tau(   7) = (   4.2732159   0.6679485  11.4788230  )
         8           H1  tau(   8) = (   2.9688513   2.1956732  11.0170627  )

     number of k points=     6  Fermi-Dirac smearing, width (Ry)=  0.0073
                       cart. coord. in units 2pi/alat
        k(    1) = (   0.0000000   0.0000000   0.0000000), wk =   0.2500000
        k(    2) = (   0.0000000   0.0998162   0.0000000), wk =   0.5000000
        k(    3) = (   0.0000000  -0.1996324   0.0000000), wk =   0.2500000
        k(    4) = (  -0.0864434   0.0499081   0.0000000), wk =   0.2500000
        k(    5) = (  -0.0864434   0.1497243   0.0000000), wk =   0.5000000
        k(    6) = (  -0.0864434  -0.1497243   0.0000000), wk =   0.2500000

     Dense  grid:   114205 G-vectors     FFT dimensions: (  54,  27, 180)

     Smooth grid:    40347 G-vectors     FFT dimensions: (  40,  20, 125)

     Largest allocated arrays     est. size (Mb)     dimensions
        Kohn-Sham Wavefunctions         0.49 Mb     (     450,   72)
        NL pseudopotentials             0.59 Mb     (     450,   86)
        Each V/rho on FFT grid          0.33 Mb     (   21870)
        Each G-vector array             0.07 Mb     (    9513)
        G-vector shells                 0.03 Mb     (    3999)
     Largest temporary arrays     est. size (Mb)     dimensions
        Auxiliary wavefunctions         1.98 Mb     (     450,  288)
        Each subspace H/S matrix        1.27 Mb     (     288,  288)
        Each <psi_i|beta_j> matrix      0.09 Mb     (      86,   72)
        Arrays for rho mixing           5.01 Mb     (   21870,   15)

     Initial potential from superposition of free atoms
     Check: negative starting charge=   -0.002414

     starting charge   81.99978, renormalised to   84.00000

     negative rho (up, down):  2.473E-03 0.000E+00
 
     Adding external electric field

     Computed dipole along edir(3) : 
        Dipole               -1.1860 Ry au,         -3.0146 Debye
        Dipole field         -0.0080 Ry au
 
        Potential amp.        0.5618 Ry
        Total length         35.2972 bohr
 
     Starting wfc are   59 randomized atomic wfcs +   13 random wfc

     total cpu time spent up to now is        1.1 secs

     per-process dynamical memory:    18.4 Mb

     Self-consistent Calculation

     iteration #  1     ecut=    29.40 Ry     beta=0.10
     Davidson diagonalization with overlap
     ethr =  1.00E-02,  avg # of iterations =  7.2

     negative rho (up, down):  1.095E-03 0.000E+00
 
     Adding external electric field

     Computed dipole along edir(3) : 
        Dipole                1.3593 Ry au,          3.4551 Debye
        Dipole field          0.0091 Ry au
 
        Potential amp.       -0.6439 Ry
        Total length         35.2972 bohr
 

     total cpu time spent up to now is        5.6 secs

     total energy              =   -1203.79183145 Ry
     Harris-Foulkes estimate   =   -1207.56675868 Ry
     estimated scf accuracy    <      21.53759685 Ry

     iteration #  2     ecut=    29.40 Ry     beta=0.10
     Davidson diagonalization with overlap
     ethr =  1.00E-02,  avg # of iterations =  3.5

     negative rho (up, down):  7.825E-04 0.000E+00
 
     Adding external electric field

     Computed dipole along edir(3) : 
        Dipole                0.0086 Ry au,          0.0217 Debye
        Dipole field          0.0001 Ry au
 
        Potential amp.       -0.0041 Ry
        Total length         35.2972 bohr
 

     total cpu time spent up to now is        7.5 secs

     total energy              =   -1205.05966922 Ry
     Harris-Foulkes estimate   =   -1207.26231426 Ry
     estimated scf accuracy    <      24.06509783 Ry

     iteration #  3     ecut=    29.40 Ry     beta=0.10
     Davidson diagonalization with overlap
     ethr =  1.00E-02,  avg # of iterations =  2.3

     negative rho (up, down):  8.328E-04 0.000E+00
 
     Adding external electric field

     Computed dipole along edir(3) : 
        Dipole                0.0306 Ry au,          0.0778 Debye
        Dipole field          0.0002 Ry au
 
        Potential amp.       -0.0145 Ry
        Total length         35.2972 bohr
 

     total cpu time spent up to now is        9.1 secs

     total energy              =   -1205.91264197 Ry
     Harris-Foulkes estimate   =   -1206.12966960 Ry
     estimated scf accuracy    <       1.17652220 Ry

     iteration #  4     ecut=    29.40 Ry     beta=0.10
     Davidson diagonalization with overlap
     ethr =  1.40E-03,  avg # of iterations =  2.5

     negative rho (up, down):  9.523E-04 0.000E+00
 
     Adding external electric field

     Computed dipole along edir(3) : 
        Dipole                0.2386 Ry au,          0.6064 Debye
        Dipole field          0.0016 Ry au
 
        Potential amp.       -0.1130 Ry
        Total length         35.2972 bohr
 

     total cpu time spent up to now is       10.6 secs

     total energy              =   -1205.72088276 Ry
     Harris-Foulkes estimate   =   -1205.94304552 Ry
     estimated scf accuracy    <       0.51354214 Ry

     iteration #  5     ecut=    29.40 Ry     beta=0.10
     Davidson diagonalization with overlap
     ethr =  6.11E-04,  avg # of iterations =  3.7

     negative rho (up, down):  9.927E-04 0.000E+00
 
     Adding external electric field

     Computed dipole along edir(3) : 
        Dipole                0.2134 Ry au,          0.5424 Debye
        Dipole field          0.0014 Ry au
 
        Potential amp.       -0.1011 Ry
        Total length         35.2972 bohr
 

     total cpu time spent up to now is       12.5 secs

     total energy              =   -1205.80863930 Ry
     Harris-Foulkes estimate   =   -1205.81169836 Ry
     estimated scf accuracy    <       0.03482649 Ry

     iteration #  6     ecut=    29.40 Ry     beta=0.10
     Davidson diagonalization with overlap
     ethr =  4.15E-05,  avg # of iterations =  4.5

     negative rho (up, down):  1.406E-03 0.000E+00
 
     Adding external electric field

     Computed dipole along edir(3) : 
        Dipole                0.2301 Ry au,          0.5849 Debye
        Dipole field          0.0015 Ry au
 
        Potential amp.       -0.1090 Ry
        Total length         35.2972 bohr
 

     total cpu time spent up to now is       14.4 secs

     total energy              =   -1205.80139086 Ry
     Harris-Foulkes estimate   =   -1205.80921496 Ry
     estimated scf accuracy    <       0.02273464 Ry

     iteration #  7     ecut=    29.40 Ry     beta=0.10
     Davidson diagonalization with overlap
     ethr =  2.71E-05,  avg # of iterations =  5.5

     negative rho (up, down):  1.449E-03 0.000E+00
 
     Adding external electric field

     Computed dipole along edir(3) : 
        Dipole                0.2319 Ry au,          0.5895 Debye
        Dipole field          0.0016 Ry au
 
        Potential amp.       -0.1099 Ry
        Total length         35.2972 bohr
 

     total cpu time spent up to now is       16.5 secs

     total energy              =   -1205.80323844 Ry
     Harris-Foulkes estimate   =   -1205.80392487 Ry
     estimated scf accuracy    <       0.00568756 Ry

     iteration #  8     ecut=    29.40 Ry     beta=0.10
     Davidson diagonalization with overlap
     ethr =  6.77E-06,  avg # of iterations =  2.8

     negative rho (up, down):  1.731E-03 0.000E+00
 
     Adding external electric field

     Computed dipole along edir(3) : 
        Dipole                0.1877 Ry au,          0.4770 Debye
        Dipole field          0.0013 Ry au
 
        Potential amp.       -0.0889 Ry
        Total length         35.2972 bohr
 

     total cpu time spent up to now is       18.1 secs

     total energy              =   -1205.80287255 Ry
     Harris-Foulkes estimate   =   -1205.80358257 Ry
     estimated scf accuracy    <       0.00243357 Ry

     iteration #  9     ecut=    29.40 Ry     beta=0.10
     Davidson diagonalization with overlap
     ethr =  2.90E-06,  avg # of iterations =  3.5

     negative rho (up, down):  1.930E-03 0.000E+00
 
     Adding external electric field

     Computed dipole along edir(3) : 
        Dipole                0.1716 Ry au,          0.4362 Debye
        Dipole field          0.0012 Ry au
 
        Potential amp.       -0.0813 Ry
        Total length         35.2972 bohr
 

     total cpu time spent up to now is       19.9 secs

     total energy              =   -1205.80313992 Ry
     Harris-Foulkes estimate   =   -1205.80323549 Ry
     estimated scf accuracy    <       0.00039560 Ry

     iteration # 10     ecut=    29.40 Ry     beta=0.10
     Davidson diagonalization with overlap
     ethr =  4.71E-07,  avg # of iterations =  2.8

     negative rho (up, down):  2.073E-03 0.000E+00
 
     Adding external electric field

     Computed dipole along edir(3) : 
        Dipole                0.1740 Ry au,          0.4424 Debye
        Dipole field          0.0012 Ry au
 
        Potential amp.       -0.0824 Ry
        Total length         35.2972 bohr
 

     total cpu time spent up to now is       21.5 secs

     total energy              =   -1205.80315720 Ry
     Harris-Foulkes estimate   =   -1205.80317078 Ry
     estimated scf accuracy    <       0.00020455 Ry

     iteration # 11     ecut=    29.40 Ry     beta=0.10
     Davidson diagonalization with overlap
     ethr =  2.44E-07,  avg # of iterations =  1.7

     negative rho (up, down):  2.206E-03 0.000E+00
 
     Adding external electric field

     Computed dipole along edir(3) : 
        Dipole                0.1720 Ry au,          0.4373 Debye
        Dipole field          0.0012 Ry au
 
        Potential amp.       -0.0815 Ry
        Total length         35.2972 bohr
 

     total cpu time spent up to now is       22.9 secs

     total energy              =   -1205.80317552 Ry
     Harris-Foulkes estimate   =   -1205.80317859 Ry
     estimated scf accuracy    <       0.00002187 Ry

     iteration # 12     ecut=    29.40 Ry     beta=0.10
     Davidson diagonalization with overlap
     ethr =  2.60E-08,  avg # of iterations =  2.0

     negative rho (up, down):  2.308E-03 0.000E+00
 
     Adding external electric field

     Computed dipole along edir(3) : 
        Dipole                0.1702 Ry au,          0.4326 Debye
        Dipole field          0.0011 Ry au
 
        Potential amp.       -0.0806 Ry
        Total length         35.2972 bohr
 

     total cpu time spent up to now is       24.4 secs

     total energy              =   -1205.80317988 Ry
     Harris-Foulkes estimate   =   -1205.80318201 Ry
     estimated scf accuracy    <       0.00001324 Ry

     iteration # 13     ecut=    29.40 Ry     beta=0.10
     Davidson diagonalization with overlap
     ethr =  1.58E-08,  avg # of iterations =  1.0

     negative rho (up, down):  2.334E-03 0.000E+00
 
     Adding external electric field

     Computed dipole along edir(3) : 
        Dipole                0.1695 Ry au,          0.4309 Debye
        Dipole field          0.0011 Ry au
 
        Potential amp.       -0.0803 Ry
        Total length         35.2972 bohr
 

     total cpu time spent up to now is       25.7 secs

     total energy              =   -1205.80318119 Ry
     Harris-Foulkes estimate   =   -1205.80318177 Ry
     estimated scf accuracy    <       0.00000261 Ry

     iteration # 14     ecut=    29.40 Ry     beta=0.10
     Davidson diagonalization with overlap
     ethr =  3.10E-09,  avg # of iterations =  2.0

     negative rho (up, down):  2.362E-03 0.000E+00
 
     Adding external electric field

     Computed dipole along edir(3) : 
        Dipole                0.1707 Ry au,          0.4339 Debye
        Dipole field          0.0011 Ry au
 
        Potential amp.       -0.0809 Ry
        Total length         35.2972 bohr
 

     total cpu time spent up to now is       27.1 secs

     End of self-consistent calculation

          k = 0.0000 0.0000 0.0000 (  5071 PWs)   bands (ev):

   -90.4939 -90.2275 -90.1632 -90.1163 -53.9995 -53.9680 -53.9106 -53.7525
   -53.6678 -53.6423 -53.6196 -53.6028 -53.5993 -53.5793 -53.5339 -53.5293
   -15.5062  -6.2497  -5.2851  -4.6079  -4.5007  -4.3686  -4.1412  -3.5257
    -3.1466  -2.9887  -2.9550  -2.8718  -2.8501  -2.7546  -2.6090  -2.1265
    -1.9695  -1.8269  -1.7539  -1.5277  -1.4914  -1.4394  -1.2142  -1.1128
    -0.3081   0.6949   1.4573   2.6676   3.4948   4.5739   5.3353   5.8196
     6.4590   6.6662   7.5698   8.0568   9.0851   9.3362   9.4859   9.9079
    10.5116  11.0526  11.1274  11.4134  11.6261  12.2807  12.6354  12.8222
    13.2020  13.8412  13.9621  14.5180  15.0750  15.1418  15.8282  16.5908

          k = 0.0000 0.0998 0.0000 (  5031 PWs)   bands (ev):

   -90.4910 -90.2243 -90.1607 -90.1136 -53.9950 -53.9607 -53.9499 -53.7343
   -53.7058 -53.6448 -53.6395 -53.6300 -53.6005 -53.5837 -53.5615 -53.5334
   -15.0964  -6.2997  -4.8551  -4.2545  -4.0869  -3.7908  -3.6873  -3.4240
    -3.3584  -3.2503  -2.9589  -2.8298  -2.7000  -2.5249  -2.4828  -2.3690
    -2.2734  -2.1710  -2.0182  -1.9018  -1.7497  -1.5344  -1.3914  -0.8764
    -0.7059   1.5492   2.1429   3.2599   4.9810   6.0085   6.5436   6.9494
     7.9005   8.1864   8.4036   8.7450   9.0732   9.4115   9.6891  10.6591
    10.6699  10.8907  11.1320  11.4825  12.0486  12.3476  12.4531  13.2768
    13.4712  13.6536  14.0831  14.4154  14.8679  15.0537  15.4107  15.5466

          k = 0.0000-0.1996 0.0000 (  5048 PWs)   bands (ev):

   -90.4881 -90.2213 -90.1579 -90.1108 -53.9984 -53.9881 -53.9558 -53.7562
   -53.7389 -53.6611 -53.6361 -53.6324 -53.6140 -53.5929 -53.5592 -53.5410
   -14.6068  -6.9295  -5.0603  -4.5767  -4.4159  -4.3564  -4.1082  -3.9119
    -3.7440  -3.3919  -2.9269  -2.7171  -2.5269  -2.1828  -1.8860  -1.6832
    -1.5906  -1.5675  -1.3079  -1.1682  -1.1101  -1.0913  -0.8668  -0.4723
     2.1555   2.5009   3.0490   3.3610   4.8208   5.9428   6.3415   6.5731
     8.0476   8.4212   8.9643   9.7455  10.1094  10.4346  10.7108  10.8921
    11.0626  11.1011  11.2348  11.2583  11.5084  12.2384  12.3503  12.4950
    12.5743  12.7070  13.0721  13.2360  13.5813  13.8061  14.2424  14.4540

          k =-0.0864 0.0499 0.0000 (  5024 PWs)   bands (ev):

   -90.4938 -90.2270 -90.1637 -90.1163 -53.9987 -53.9589 -53.9093 -53.7186
   -53.6634 -53.6558 -53.6402 -53.6109 -53.6029 -53.5831 -53.5324 -53.5287
   -15.4951  -6.1541  -5.0900  -4.1889  -3.9801  -3.8575  -3.7412  -3.4020
    -3.2423  -3.1895  -2.9820  -2.8952  -2.6182  -2.4539  -2.4101  -2.3499
    -2.2497  -2.1861  -2.1189  -2.0260  -1.9319  -1.7525  -1.4887  -1.4013
    -1.0537  -0.2769   1.4704   2.4213   3.6267   5.2883   5.9283   6.2033
     6.6654   6.8385   7.1620   7.8919   8.2888   8.5449   9.1763   9.7453
    10.5030  10.8953  11.2338  12.0149  12.2358  12.6735  13.8162  14.0192
    14.5397  14.7665  15.5402  15.8527  16.0620  16.4896  16.5384  17.1455

          k =-0.0864 0.1497 0.0000 (  5031 PWs)   bands (ev):

   -90.4910 -90.2243 -90.1607 -90.1136 -53.9950 -53.9588 -53.9520 -53.7328
   -53.7067 -53.6500 -53.6384 -53.6266 -53.6002 -53.5837 -53.5616 -53.5335
   -15.0964  -6.2988  -4.8460  -4.2629  -4.0036  -3.7501  -3.6983  -3.5424
    -3.3546  -3.2425  -2.9613  -2.8548  -2.6852  -2.5498  -2.4490  -2.3498
    -2.3321  -2.1662  -2.0707  -1.9093  -1.8183  -1.5104  -1.4257  -0.8648
    -0.5534   1.7155   2.0691   3.3549   4.8761   5.9653   6.5047   6.8998
     7.8093   8.1041   8.3541   8.7455   9.0165   9.4424   9.6433  10.5664
    10.6928  10.9971  11.1981  11.6536  12.0441  12.2919  12.5282  13.4200
    13.6035  13.7360  14.1603  14.4786  14.8469  15.1544  15.4250  15.5071

          k =-0.0864-0.1497 0.0000 (  5038 PWs)   bands (ev):

   -90.4881 -90.2213 -90.1579 -90.1108 -53.9966 -53.9871 -53.9507 -53.7451
   -53.7114 -53.6880 -53.6475 -53.6344 -53.6201 -53.5955 -53.5590 -53.5401
   -14.6134  -6.9318  -4.9877  -4.0574  -3.7756  -3.7005  -3.5447  -3.4884
    -3.4769  -3.3022  -2.9620  -2.9430  -2.7652  -2.7067  -2.5560  -2.4979
    -2.3124  -2.1158  -1.8254  -1.6873  -1.4513  -1.2617  -0.7034  -0.3972
     1.6971   2.0171   3.3335   4.3959   5.5623   7.6581   8.1194   8.2128
     8.3551   8.5014   8.8716   9.1562   9.5514   9.6122   9.8671  10.0162
    10.5424  10.8229  11.0144  11.4312  11.8508  11.9505  12.3414  12.4758
    12.9387  13.6109  13.6937  13.7565  14.2616  14.5663  14.7887  14.8589

     the Fermi energy is     1.9595 ev

!    total energy              =   -1205.80318785 Ry
     Harris-Foulkes estimate   =   -1205.80317879 Ry
     estimated scf accuracy    <       0.00000033 Ry

     The total energy is the sum of the following terms:

     one-electron contribution =   -6044.11022803 Ry
     hartree contribution      =    3020.06751913 Ry
     xc contribution           =    -123.30895935 Ry
     ewald contribution        =    1941.55581879 Ry
     electric field correction =       0.00019557 Ry
     smearing contrib. (-TS)   =      -0.00753396 Ry

     convergence has been achieved in  14 iterations

     Forces acting on atoms (Ry/au):


     negative rho (up, down):  2.362E-03 0.000E+00
     atom    1 type  1   force =    -0.00228895    0.00216683   -0.00919024
     atom    2 type  1   force =     0.00307094   -0.00162036   -0.01227145
     atom    3 type  1   force =     0.00590951   -0.00873663    0.02680990
     atom    4 type  1   force =    -0.02932210    0.02127020   -0.08469783
     atom    5 type  2   force =     0.00689814    0.00835118    0.02913330
     atom    6 type  3   force =    -0.01089528    0.03822461    0.05004481
     atom    7 type  3   force =     0.00265828   -0.05457002    0.02150815
     atom    8 type  3   force =     0.02396947   -0.00508582   -0.02133665

     Total force =     0.138299     Total SCF correction =     0.003307
 !ASE
     Check: negative starting charge=   -0.002414
     NEW-OLD atomic charge density approx. for the potential
     Check: negative starting charge=   -0.002378

     negative rho (up, down):  2.331E-03 0.000E+00
 
     Adding external electric field

     Computed dipole along edir(3) : 
        Dipole                0.1707 Ry au,          0.4340 Debye
        Dipole field          0.0011 Ry au
 
        Potential amp.       -0.0809 Ry
        Total length         35.2972 bohr
 

     total cpu time spent up to now is       28.3 secs

     per-process dynamical memory:    31.3 Mb

     Self-consistent Calculation

     iteration #  1     ecut=    29.40 Ry     beta=0.10
     Davidson diagonalization with overlap
     ethr =  3.10E-09,  avg # of iterations =  6.5

     negative rho (up, down):  2.315E-03 0.000E+00
 
     Adding external electric field

     Computed dipole along edir(3) : 
        Dipole                0.2324 Ry au,          0.5906 Debye
        Dipole field          0.0016 Ry au
 
        Potential amp.       -0.1101 Ry
        Total length         35.2972 bohr
 

     total cpu time spent up to now is       31.9 secs

     total energy              =   -1205.80470861 Ry
     Harris-Foulkes estimate   =   -1205.81410990 Ry
     estimated scf accuracy    <       0.06093718 Ry

     iteration #  2     ecut=    29.40 Ry     beta=0.10
     Davidson diagonalization with overlap
     ethr =  7.25E-05,  avg # of iterations =  2.2

     negative rho (up, down):  2.306E-03 0.000E+00
 
     Adding external electric field

     Computed dipole along edir(3) : 
        Dipole                0.1632 Ry au,          0.4148 Debye
        Dipole field          0.0011 Ry au
 
        Potential amp.       -0.0773 Ry
        Total length         35.2972 bohr
 

     total cpu time spent up to now is       33.4 secs

     total energy              =   -1205.80579901 Ry
     Harris-Foulkes estimate   =   -1205.80962336 Ry
     estimated scf accuracy    <       0.03489261 Ry

     iteration #  3     ecut=    29.40 Ry     beta=0.10
     Davidson diagonalization with overlap
     ethr =  4.15E-05,  avg # of iterations =  2.8

     negative rho (up, down):  2.306E-03 0.000E+00
 
     Adding external electric field

     Computed dipole along edir(3) : 
        Dipole                0.1316 Ry au,          0.3346 Debye
        Dipole field          0.0009 Ry au
 
        Potential amp.       -0.0623 Ry
        Total length         35.2972 bohr
 

     total cpu time spent up to now is       35.0 secs

     total energy              =   -1205.80387781 Ry
     Harris-Foulkes estimate   =   -1205.80726825 Ry
     estimated scf accuracy    <       0.01257963 Ry

     iteration #  4     ecut=    29.40 Ry     beta=0.10
     Davidson diagonalization with overlap
     ethr =  1.50E-05,  avg # of iterations =  3.7

     negative rho (up, down):  2.345E-03 0.000E+00
 
     Adding external electric field

     Computed dipole along edir(3) : 
        Dipole                0.1283 Ry au,          0.3261 Debye
        Dipole field          0.0009 Ry au
 
        Potential amp.       -0.0608 Ry
        Total length         35.2972 bohr
 

     total cpu time spent up to now is       36.7 secs

     total energy              =   -1205.80455025 Ry
     Harris-Foulkes estimate   =   -1205.80496089 Ry
     estimated scf accuracy    <       0.00259157 Ry

     iteration #  5     ecut=    29.40 Ry     beta=0.10
     Davidson diagonalization with overlap
     ethr =  3.09E-06,  avg # of iterations =  3.5

     negative rho (up, down):  2.486E-03 0.000E+00
 
     Adding external electric field

     Computed dipole along edir(3) : 
        Dipole                0.1322 Ry au,          0.3361 Debye
        Dipole field          0.0009 Ry au
 
        Potential amp.       -0.0626 Ry
        Total length         35.2972 bohr
 

     total cpu time spent up to now is       38.4 secs

     total energy              =   -1205.80456246 Ry
     Harris-Foulkes estimate   =   -1205.80468547 Ry
     estimated scf accuracy    <       0.00099755 Ry

     iteration #  6     ecut=    29.40 Ry     beta=0.10
     Davidson diagonalization with overlap
     ethr =  1.19E-06,  avg # of iterations =  2.8

     negative rho (up, down):  2.475E-03 0.000E+00
 
     Adding external electric field

     Computed dipole along edir(3) : 
        Dipole                0.1411 Ry au,          0.3587 Debye
        Dipole field          0.0009 Ry au
 
        Potential amp.       -0.0669 Ry
        Total length         35.2972 bohr
 

     total cpu time spent up to now is       40.1 secs

     total energy              =   -1205.80463181 Ry
     Harris-Foulkes estimate   =   -1205.80466234 Ry
     estimated scf accuracy    <       0.00048884 Ry

     iteration #  7     ecut=    29.40 Ry     beta=0.10
     Davidson diagonalization with overlap
     ethr =  5.82E-07,  avg # of iterations =  2.5

     negative rho (up, down):  2.491E-03 0.000E+00
 
     Adding external electric field

     Computed dipole along edir(3) : 
        Dipole                0.1495 Ry au,          0.3800 Debye
        Dipole field          0.0010 Ry au
 
        Potential amp.       -0.0708 Ry
        Total length         35.2972 bohr
 

     total cpu time spent up to now is       41.6 secs

     total energy              =   -1205.80465444 Ry
     Harris-Foulkes estimate   =   -1205.80464166 Ry
     estimated scf accuracy    <       0.00005527 Ry

     iteration #  8     ecut=    29.40 Ry     beta=0.10
     Davidson diagonalization with overlap
     ethr =  6.58E-08,  avg # of iterations =  3.0

     negative rho (up, down):  2.463E-03 0.000E+00
 
     Adding external electric field

     Computed dipole along edir(3) : 
        Dipole                0.1491 Ry au,          0.3790 Debye
        Dipole field          0.0010 Ry au
 
        Potential amp.       -0.0706 Ry
        Total length         35.2972 bohr
 

     total cpu time spent up to now is       43.2 secs

     total energy              =   -1205.80466149 Ry
     Harris-Foulkes estimate   =   -1205.80466120 Ry
     estimated scf accuracy    <       0.00000736 Ry

     iteration #  9     ecut=    29.40 Ry     beta=0.10
     Davidson diagonalization with overlap
     ethr =  8.76E-09,  avg # of iterations =  1.0

     negative rho (up, down):  2.444E-03 0.000E+00
 
     Adding external electric field

     Computed dipole along edir(3) : 
        Dipole                0.1501 Ry au,          0.3814 Debye
        Dipole field          0.0010 Ry au
 
        Potential amp.       -0.0711 Ry
        Total length         35.2972 bohr
 

     total cpu time spent up to now is       44.5 secs

     total energy              =   -1205.80466244 Ry
     Harris-Foulkes estimate   =   -1205.80465980 Ry
     estimated scf accuracy    <       0.00000404 Ry

     iteration # 10     ecut=    29.40 Ry     beta=0.10
     Davidson diagonalization with overlap
     ethr =  4.80E-09,  avg # of iterations =  2.0

     negative rho (up, down):  2.325E-03 0.000E+00
 
     Adding external electric field

     Computed dipole along edir(3) : 
        Dipole                0.1467 Ry au,          0.3728 Debye
        Dipole field          0.0010 Ry au
 
        Potential amp.       -0.0695 Ry
        Total length         35.2972 bohr
 

     total cpu time spent up to now is       46.0 secs

     End of self-consistent calculation

          k = 0.0000 0.0000 0.0000 (  5071 PWs)   bands (ev):

   -90.5588 -90.2924 -90.2357 -90.1928 -54.0614 -54.0271 -53.9727 -53.8196
   -53.7351 -53.7062 -53.6898 -53.6782 -53.6733 -53.6514 -53.6084 -53.6042
   -14.5338  -5.8387  -5.1797  -4.6287  -4.5688  -4.4144  -4.1872  -3.4962
    -3.0676  -3.0378  -2.9993  -2.9359  -2.9146  -2.8133  -2.6630  -2.1306
    -2.0422  -1.8385  -1.7898  -1.5842  -1.5219  -1.4814  -1.2850  -1.1825
     0.1440   0.5647   1.4692   2.5893   3.3491   4.6011   5.3447   5.7784
     6.4064   6.6905   7.3077   7.8722   8.0927   9.0040   9.3335   9.7640
    10.5016  10.9909  11.1220  11.4165  11.5734  12.2570  12.6092  12.8087
    13.1608  13.7311  13.9599  14.3679  14.9474  15.1255  15.7753  16.4340

          k = 0.0000 0.0998 0.0000 (  5031 PWs)   bands (ev):

   -90.5558 -90.2892 -90.2332 -90.1901 -54.0557 -54.0194 -54.0135 -53.8013
   -53.7723 -53.7186 -53.7066 -53.6993 -53.6757 -53.6581 -53.6360 -53.6054
   -14.0427  -5.6587  -4.7856  -4.1532  -4.1165  -3.8427  -3.7466  -3.4829
    -3.4093  -3.2859  -3.0290  -2.8886  -2.7620  -2.5891  -2.5392  -2.4266
    -2.3114  -2.2418  -2.0727  -1.9680  -1.7788  -1.5975  -1.4504  -0.9936
    -0.7266   1.4607   2.0153   3.3255   4.8571   5.9786   6.5380   6.9324
     7.7802   8.1267   8.3076   8.6810   8.9960   9.3978   9.6654  10.3974
    10.6074  10.6951  11.0387  11.1799  11.8463  12.0531  12.3901  13.0819
    13.3242  13.5871  13.9847  14.2661  14.7888  14.9825  15.4127  15.5414

          k = 0.0000-0.1996 0.0000 (  5048 PWs)   bands (ev):

   -90.5530 -90.2862 -90.2304 -90.1874 -54.0604 -54.0489 -54.0160 -53.8235
   -53.8074 -53.7317 -53.7081 -53.6976 -53.6906 -53.6690 -53.6300 -53.6134
   -13.4256  -6.4498  -4.8358  -4.6286  -4.4805  -4.4093  -4.1695  -3.9716
    -3.7474  -3.4218  -2.9522  -2.7926  -2.5960  -2.2241  -1.9559  -1.7490
    -1.6573  -1.6366  -1.3770  -1.2393  -1.1829  -1.1633  -0.9929  -0.5142
     2.0525   2.4150   2.9701   3.2768   4.8008   5.8488   6.2746   6.5115
     7.9424   8.2927   8.5272   9.7597  10.0733  10.3828  10.6683  10.8552
    11.0367  11.0931  11.2241  11.2923  11.5042  12.1667  12.2693  12.4351
    12.5417  12.6864  13.0059  13.1249  13.4922  13.7699  14.1985  14.3862

          k =-0.0864 0.0499 0.0000 (  5024 PWs)   bands (ev):

   -90.5587 -90.2918 -90.2363 -90.1929 -54.0575 -54.0209 -53.9714 -53.7836
   -53.7302 -53.7282 -53.7056 -53.6852 -53.6774 -53.6550 -53.6081 -53.6025
   -14.5197  -5.5623  -5.0771  -4.2377  -4.0544  -3.9245  -3.8006  -3.4620
    -3.2833  -3.2183  -3.0435  -2.7952  -2.6612  -2.5150  -2.4807  -2.4100
    -2.3222  -2.2416  -2.1802  -2.0409  -1.9847  -1.7371  -1.4756  -1.4720
    -1.1024   0.0858   1.4004   2.2073   3.7345   5.0796   5.8997   6.2136
     6.6769   6.8380   7.1281   7.7582   8.0059   8.2640   8.9525   9.1509
    10.5097  10.8722  11.1721  11.9111  12.1567  12.5315  13.7702  14.0187
    14.4895  14.6091  15.3941  15.5131  15.9286  16.3257  16.4541  17.0023

          k =-0.0864 0.1497 0.0000 (  5031 PWs)   bands (ev):

   -90.5558 -90.2892 -90.2332 -90.1901 -54.0551 -54.0208 -54.0128 -53.7995
   -53.7734 -53.7235 -53.7040 -53.6976 -53.6753 -53.6582 -53.6360 -53.6055
   -14.0427  -5.6682  -4.7936  -4.1973  -3.9997  -3.7794  -3.7297  -3.5962
    -3.4029  -3.2894  -3.0244  -2.9110  -2.7347  -2.6096  -2.5189  -2.4007
    -2.3470  -2.2318  -2.1295  -1.9794  -1.8805  -1.5791  -1.4859  -0.9152
    -0.6728   1.6184   1.9513   3.4129   4.7618   5.9421   6.5057   6.8671
     7.6703   8.0716   8.2909   8.6580   8.9264   9.3739   9.6416  10.4134
    10.6189  10.8835  11.0461  11.2944  11.8774  12.1331  12.3236  13.1405
    13.4854  13.6985  14.1140  14.3397  14.7423  15.0347  15.4142  15.4757

          k =-0.0864-0.1497 0.0000 (  5038 PWs)   bands (ev):

   -90.5530 -90.2862 -90.2304 -90.1874 -54.0581 -54.0467 -54.0125 -53.8117
   -53.7764 -53.7624 -53.7200 -53.7000 -53.6968 -53.6710 -53.6298 -53.6125
   -13.4339  -6.4552  -4.6797  -4.1131  -3.8450  -3.7665  -3.6137  -3.5605
    -3.5542  -3.3412  -3.0326  -2.9751  -2.8338  -2.7742  -2.6170  -2.5629
    -2.3654  -2.1772  -1.8896  -1.7497  -1.5208  -1.3330  -0.8742  -0.3727
     1.6424   1.9255   3.3435   4.3171   5.4931   7.5906   7.8682   8.0878
     8.2407   8.4229   8.8339   9.1153   9.5355   9.5712   9.7690   9.8560
    10.4654  10.7765  10.9574  11.3335  11.6149  11.8867  12.2393  12.2951
    12.8488  13.5113  13.5559  13.6893  14.2419  14.5501  14.7271  14.7456

     the Fermi energy is     1.8531 ev

!    total energy              =   -1205.80466831 Ry
     Harris-Foulkes estimate   =   -1205.80466965 Ry
     estimated scf accuracy    <       0.00000074 Ry

     The total energy is the sum of the following terms:

     one-electron contribution =   -6018.81489545 Ry
     hartree contribution      =    3007.28198376 Ry
     xc contribution           =    -123.12548781 Ry
     ewald contribution        =    1928.86187657 Ry
     electric field correction =       0.00014437 Ry
     smearing contrib. (-TS)   =      -0.00828975 Ry

     convergence has been achieved in  10 iterations

     Forces acting on atoms (Ry/au):


     negative rho (up, down):  2.325E-03 0.000E+00
     atom    1 type  1   force =    -0.00229745    0.00221907   -0.00863593
     atom    2 type  1   force =     0.00292392   -0.00178316   -0.01459318
     atom    3 type  1   force =     0.00554256   -0.00811519    0.02492470
     atom    4 type  1   force =    -0.01952744    0.01590372   -0.05183260
     atom    5 type  2   force =    -0.04790487   -0.08527302    0.09646066
     atom    6 type  3   force =     0.00057950   -0.02101894   -0.06273210
     atom    7 type  3   force =     0.03605617    0.10137563    0.02497196
     atom    8 type  3   force =     0.02462761   -0.00330811   -0.00856351

     Total force =     0.201217     Total SCF correction =     0.003882
 !ASE
     Check: negative starting charge=   -0.002378
     NEW-OLD atomic charge density approx. for the potential
     Check: negative starting charge=   -0.002400

     negative rho (up, down):  2.404E-03 0.000E+00
 
     Adding external electric field

     Computed dipole along edir(3) : 
        Dipole                0.1467 Ry au,          0.3728 Debye
        Dipole field          0.0010 Ry au
 
        Potential amp.       -0.0695 Ry
        Total length         35.2972 bohr
 

     total cpu time spent up to now is       47.3 secs

     per-process dynamical memory:    31.3 Mb

     Self-consistent Calculation

     iteration #  1     ecut=    29.40 Ry     beta=0.10
     Davidson diagonalization with overlap
     ethr =  4.80E-09,  avg # of iterations =  6.2

     negative rho (up, down):  2.399E-03 0.000E+00
 
     Adding external electric field

     Computed dipole along edir(3) : 
        Dipole                0.1233 Ry au,          0.3133 Debye
        Dipole field          0.0008 Ry au
 
        Potential amp.       -0.0584 Ry
        Total length         35.2972 bohr
 

     total cpu time spent up to now is       50.6 secs

     total energy              =   -1205.81365132 Ry
     Harris-Foulkes estimate   =   -1205.81545049 Ry
     estimated scf accuracy    <       0.01166265 Ry

     iteration #  2     ecut=    29.40 Ry     beta=0.10
     Davidson diagonalization with overlap
     ethr =  1.39E-05,  avg # of iterations =  2.3

     negative rho (up, down):  2.394E-03 0.000E+00
 
     Adding external electric field

     Computed dipole along edir(3) : 
        Dipole                0.1523 Ry au,          0.3871 Debye
        Dipole field          0.0010 Ry au
 
        Potential amp.       -0.0721 Ry
        Total length         35.2972 bohr
 

     total cpu time spent up to now is       52.1 secs

     total energy              =   -1205.81373046 Ry
     Harris-Foulkes estimate   =   -1205.81434107 Ry
     estimated scf accuracy    <       0.00635329 Ry

     iteration #  3     ecut=    29.40 Ry     beta=0.10
     Davidson diagonalization with overlap
     ethr =  7.56E-06,  avg # of iterations =  3.2

     negative rho (up, down):  2.389E-03 0.000E+00
 
     Adding external electric field

     Computed dipole along edir(3) : 
        Dipole                0.1664 Ry au,          0.4230 Debye
        Dipole field          0.0011 Ry au
 
        Potential amp.       -0.0788 Ry
        Total length         35.2972 bohr
 

     total cpu time spent up to now is       53.7 secs

     total energy              =   -1205.81323643 Ry
     Harris-Foulkes estimate   =   -1205.81394004 Ry
     estimated scf accuracy    <       0.00284468 Ry

     iteration #  4     ecut=    29.40 Ry     beta=0.10
     Davidson diagonalization with overlap
     ethr =  3.39E-06,  avg # of iterations =  3.5

     negative rho (up, down):  2.389E-03 0.000E+00
 
     Adding external electric field

     Computed dipole along edir(3) : 
        Dipole                0.1705 Ry au,          0.4334 Debye
        Dipole field          0.0011 Ry au
 
        Potential amp.       -0.0808 Ry
        Total length         35.2972 bohr
 

     total cpu time spent up to now is       55.4 secs

     total energy              =   -1205.81341509 Ry
     Harris-Foulkes estimate   =   -1205.81348555 Ry
     estimated scf accuracy    <       0.00060657 Ry

     iteration #  5     ecut=    29.40 Ry     beta=0.10
     Davidson diagonalization with overlap
     ethr =  7.22E-07,  avg # of iterations =  2.8

     negative rho (up, down):  2.400E-03 0.000E+00
 
     Adding external electric field

     Computed dipole along edir(3) : 
        Dipole                0.1667 Ry au,          0.4238 Debye
        Dipole field          0.0011 Ry au
 
        Potential amp.       -0.0790 Ry
        Total length         35.2972 bohr
 

     total cpu time spent up to now is       57.0 secs

     total energy              =   -1205.81343462 Ry
     Harris-Foulkes estimate   =   -1205.81345636 Ry
     estimated scf accuracy    <       0.00020193 Ry

     iteration #  6     ecut=    29.40 Ry     beta=0.10
     Davidson diagonalization with overlap
     ethr =  2.40E-07,  avg # of iterations =  2.0

     negative rho (up, down):  2.397E-03 0.000E+00
 
     Adding external electric field

     Computed dipole along edir(3) : 
        Dipole                0.1652 Ry au,          0.4198 Debye
        Dipole field          0.0011 Ry au
 
        Potential amp.       -0.0782 Ry
        Total length         35.2972 bohr
 

     total cpu time spent up to now is       58.5 secs

     total energy              =   -1205.81344667 Ry
     Harris-Foulkes estimate   =   -1205.81345160 Ry
     estimated scf accuracy    <       0.00004632 Ry

     iteration #  7     ecut=    29.40 Ry     beta=0.10
     Davidson diagonalization with overlap
     ethr =  5.51E-08,  avg # of iterations =  2.0

     negative rho (up, down):  2.393E-03 0.000E+00
 
     Adding external electric field

     Computed dipole along edir(3) : 
        Dipole                0.1614 Ry au,          0.4103 Debye
        Dipole field          0.0011 Ry au
 
        Potential amp.       -0.0765 Ry
        Total length         35.2972 bohr
 

     total cpu time spent up to now is       59.9 secs

     total energy              =   -1205.81344891 Ry
     Harris-Foulkes estimate   =   -1205.81345921 Ry
     estimated scf accuracy    <       0.00001515 Ry

     iteration #  8     ecut=    29.40 Ry     beta=0.10
     Davidson diagonalization with overlap
     ethr =  1.80E-08,  avg # of iterations =  2.0

     negative rho (up, down):  2.384E-03 0.000E+00
 
     Adding external electric field

     Computed dipole along edir(3) : 
        Dipole                0.1614 Ry au,          0.4101 Debye
        Dipole field          0.0011 Ry au
 
        Potential amp.       -0.0764 Ry
        Total length         35.2972 bohr
 

     total cpu time spent up to now is       61.4 secs

     total energy              =   -1205.81345072 Ry
     Harris-Foulkes estimate   =   -1205.81345072 Ry
     estimated scf accuracy    <       0.00000153 Ry

     iteration #  9     ecut=    29.40 Ry     beta=0.10
     Davidson diagonalization with overlap
     ethr =  1.82E-09,  avg # of iterations =  2.0

     negative rho (up, down):  2.342E-03 0.000E+00
 
     Adding external electric field

     Computed dipole along edir(3) : 
        Dipole                0.1612 Ry au,          0.4097 Debye
        Dipole field          0.0011 Ry au
 
        Potential amp.       -0.0764 Ry
        Total length         35.2972 bohr
 

     total cpu time spent up to now is       62.8 secs

     End of self-consistent calculation

          k = 0.0000 0.0000 0.0000 (  5071 PWs)   bands (ev):

   -90.5199 -90.2565 -90.1965 -90.1496 -54.0197 -53.9950 -53.9357 -53.7826
   -53.6978 -53.6706 -53.6514 -53.6360 -53.6330 -53.6115 -53.5660 -53.5625
   -15.0034  -6.0169  -5.2497  -4.6106  -4.5319  -4.3873  -4.1601  -3.4961
    -3.0768  -3.0160  -2.9842  -2.9003  -2.8808  -2.7819  -2.6318  -2.1210
    -2.0012  -1.8293  -1.7681  -1.5494  -1.4998  -1.4656  -1.2447  -1.1438
    -0.1139   0.6336   1.4660   2.6335   3.4299   4.5869   5.3425   5.8005
     6.4356   6.6854   7.4689   8.0192   8.6160   9.1566   9.3645   9.8360
    10.5016  11.0264  11.1242  11.4072  11.5936  12.2692  12.6225  12.8166
    13.1849  13.7901  13.9614  14.4427  15.0305  15.1121  15.8048  16.5232

          k = 0.0000 0.0998 0.0000 (  5031 PWs)   bands (ev):

   -90.5170 -90.2532 -90.1940 -90.1469 -54.0151 -53.9867 -53.9761 -53.7643
   -53.7354 -53.6783 -53.6693 -53.6614 -53.6337 -53.6165 -53.5944 -53.5651
   -14.5516  -5.9868  -4.7972  -4.1987  -4.1023  -3.8144  -3.7141  -3.4503
    -3.3808  -3.2653  -2.9901  -2.8552  -2.7275  -2.5530  -2.5060  -2.3941
    -2.2902  -2.2018  -2.0422  -1.9309  -1.7616  -1.5619  -1.4173  -0.9280
    -0.7153   1.5082   2.0839   3.2955   4.9271   5.9982   6.5404   6.9444
     7.8531   8.1564   8.3615   8.7211   9.0406   9.4026   9.6820  10.6272
    10.6381  10.7807  11.1096  11.2953  11.9679  12.1736  12.4178  13.2039
    13.3829  13.6055  14.0307  14.3332  14.8313  15.0152  15.4092  15.5435

          k = 0.0000-0.1996 0.0000 (  5048 PWs)   bands (ev):

   -90.5141 -90.2503 -90.1912 -90.1441 -54.0229 -54.0085 -53.9831 -53.7863
   -53.7696 -53.6930 -53.6689 -53.6612 -53.6475 -53.6264 -53.5914 -53.5723
   -13.9979  -6.6996  -4.9234  -4.6087  -4.4444  -4.3784  -4.1355  -3.9370
    -3.7430  -3.4048  -2.9383  -2.7498  -2.5572  -2.2008  -1.9167  -1.7119
    -1.6199  -1.5983  -1.3372  -1.1996  -1.1428  -1.1228  -0.9227  -0.4971
     2.1078   2.4618   3.0134   3.3229   4.8208   5.9030   6.3118   6.5500
     8.0227   8.3701   8.7391   9.7595  10.0916  10.4151  10.6891  10.8775
    11.0560  11.0951  11.2313  11.2718  11.5053  12.2121  12.3183  12.4814
    12.5534  12.6989  13.0577  13.1824  13.5381  13.7902  14.2241  14.4197

          k =-0.0864 0.0499 0.0000 (  5024 PWs)   bands (ev):

   -90.5198 -90.2559 -90.1970 -90.1497 -54.0179 -53.9867 -53.9345 -53.7476
   -53.6932 -53.6889 -53.6689 -53.6438 -53.6368 -53.6153 -53.5650 -53.5615
   -14.9908  -5.8589  -5.0738  -4.2087  -4.0120  -3.8873  -3.7665  -3.4262
    -3.2484  -3.2008  -3.0074  -2.8321  -2.6368  -2.4805  -2.4405  -2.3757
    -2.2813  -2.2082  -2.1442  -2.0231  -1.9566  -1.7417  -1.4823  -1.4333
    -1.0755  -0.1336   1.4378   2.3217   3.6860   5.2038   5.9219   6.2047
     6.6691   6.8412   7.1486   7.8861   8.2566   8.3709   9.0907   9.2990
    10.5058  10.8827  11.2016  11.9680  12.2003  12.6024  13.7968  14.0182
    14.5187  14.6938  15.4949  15.6679  15.9927  16.4066  16.4983  17.0815

          k =-0.0864 0.1497 0.0000 (  5031 PWs)   bands (ev):

   -90.5170 -90.2532 -90.1940 -90.1469 -54.0147 -53.9866 -53.9767 -53.7627
   -53.7364 -53.6835 -53.6674 -53.6587 -53.6334 -53.6166 -53.5945 -53.5651
   -14.5516  -5.9891  -4.7988  -4.2200  -4.0006  -3.7570  -3.7225  -3.5664
    -3.3751  -3.2636  -2.9891  -2.8791  -2.7064  -2.5759  -2.4795  -2.3656
    -2.3455  -2.1951  -2.0972  -1.9403  -1.8451  -1.5403  -1.4523  -0.8850
    -0.6086   1.6710   2.0147   3.3875   4.8268   5.9574   6.5060   6.8873
     7.7501   8.0869   8.3276   8.7102   8.9770   9.4141   9.6431  10.5189
    10.6683  10.9525  11.1524  11.4804  11.9687  12.2230  12.4022  13.2863
    13.5181  13.7118  14.1349  14.4050  14.7924  15.0945  15.4197  15.4872

          k =-0.0864-0.1497 0.0000 (  5038 PWs)   bands (ev):

   -90.5141 -90.2503 -90.1912 -90.1442 -54.0208 -54.0073 -53.9785 -53.7747
   -53.7404 -53.7219 -53.6806 -53.6632 -53.6537 -53.6288 -53.5912 -53.5715
   -14.0054  -6.7032  -4.8228  -4.0795  -3.8058  -3.7293  -3.5752  -3.5205
    -3.5103  -3.3208  -2.9923  -2.9548  -2.7959  -2.7367  -2.5829  -2.5266
    -2.3354  -2.1426  -1.8537  -1.7147  -1.4820  -1.2930  -0.7844  -0.3858
     1.6739   1.9753   3.3429   4.3605   5.5319   7.6519   8.0163   8.1470
     8.2998   8.4653   8.8527   9.1425   9.5434   9.5993   9.8609   9.9063
    10.5051  10.8013  10.9887  11.3849  11.7398  11.9307  12.3215  12.3628
    12.8952  13.5705  13.6355  13.7088  14.2531  14.5572  14.7786  14.8232

     the Fermi energy is     1.9105 ev

!    total energy              =   -1205.81345264 Ry
     Harris-Foulkes estimate   =   -1205.81345117 Ry
     estimated scf accuracy    <       0.00000038 Ry

     The total energy is the sum of the following terms:

     one-electron contribution =   -6031.87581391 Ry
     hartree contribution      =    3013.89822756 Ry
     xc contribution           =    -123.21560709 Ry
     ewald contribution        =    1935.38743265 Ry
     electric field correction =       0.00017434 Ry
     smearing contrib. (-TS)   =      -0.00786619 Ry

     convergence has been achieved in   9 iterations

     Forces acting on atoms (Ry/au):


     negative rho (up, down):  2.342E-03 0.000E+00
     atom    1 type  1   force =    -0.00218168    0.00208415   -0.00896596
     atom    2 type  1   force =     0.00284847   -0.00159594   -0.01343729
     atom    3 type  1   force =     0.00574601   -0.00848004    0.02602740
     atom    4 type  1   force =    -0.02437255    0.01885991   -0.06725402
     atom    5 type  2   force =    -0.02798606   -0.05951898    0.06806786
     atom    6 type  3   force =    -0.00551958    0.00726103   -0.01228468
     atom    7 type  3   force =     0.02696076    0.04587383    0.02341069
     atom    8 type  3   force =     0.02450464   -0.00448396   -0.01556400

     Total force =     0.141319     Total SCF correction =     0.002151
 !ASE
     Check: negative starting charge=   -0.002400
     NEW-OLD atomic charge density approx. for the potential
     Check: negative starting charge=   -0.002355

     negative rho (up, down):  2.307E-03 0.000E+00
 
     Adding external electric field

     Computed dipole along edir(3) : 
        Dipole                0.1612 Ry au,          0.4097 Debye
        Dipole field          0.0011 Ry au
 
        Potential amp.       -0.0764 Ry
        Total length         35.2972 bohr
 

     total cpu time spent up to now is       64.1 secs

     per-process dynamical memory:    31.3 Mb

     Self-consistent Calculation

     iteration #  1     ecut=    29.40 Ry     beta=0.10
     Davidson diagonalization with overlap
     ethr =  1.82E-09,  avg # of iterations =  8.8

     negative rho (up, down):  2.297E-03 0.000E+00
 
     Adding external electric field

     Computed dipole along edir(3) : 
        Dipole                0.0806 Ry au,          0.2048 Debye
        Dipole field          0.0005 Ry au
 
        Potential amp.       -0.0382 Ry
        Total length         35.2972 bohr
 

     total cpu time spent up to now is       68.1 secs

     total energy              =   -1205.83129212 Ry
     Harris-Foulkes estimate   =   -1205.83577105 Ry
     estimated scf accuracy    <       0.03245002 Ry

     iteration #  2     ecut=    29.40 Ry     beta=0.10
     Davidson diagonalization with overlap
     ethr =  3.86E-05,  avg # of iterations =  3.0

     negative rho (up, down):  2.292E-03 0.000E+00
 
     Adding external electric field

     Computed dipole along edir(3) : 
        Dipole                0.1126 Ry au,          0.2863 Debye
        Dipole field          0.0008 Ry au
 
        Potential amp.       -0.0533 Ry
        Total length         35.2972 bohr
 

     total cpu time spent up to now is       69.8 secs

     total energy              =   -1205.83183053 Ry
     Harris-Foulkes estimate   =   -1205.83343498 Ry
     estimated scf accuracy    <       0.02013557 Ry

     iteration #  3     ecut=    29.40 Ry     beta=0.10
     Davidson diagonalization with overlap
     ethr =  2.40E-05,  avg # of iterations =  2.2

     negative rho (up, down):  2.340E-03 0.000E+00
 
     Adding external electric field

     Computed dipole along edir(3) : 
        Dipole                0.0837 Ry au,          0.2127 Debye
        Dipole field          0.0006 Ry au
 
        Potential amp.       -0.0396 Ry
        Total length         35.2972 bohr
 

     total cpu time spent up to now is       71.3 secs

     total energy              =   -1205.83006834 Ry
     Harris-Foulkes estimate   =   -1205.83245894 Ry
     estimated scf accuracy    <       0.01021100 Ry

     iteration #  4     ecut=    29.40 Ry     beta=0.10
     Davidson diagonalization with overlap
     ethr =  1.22E-05,  avg # of iterations =  3.7

     negative rho (up, down):  2.503E-03 0.000E+00
 
     Adding external electric field

     Computed dipole along edir(3) : 
        Dipole                0.0866 Ry au,          0.2202 Debye
        Dipole field          0.0006 Ry au
 
        Potential amp.       -0.0410 Ry
        Total length         35.2972 bohr
 

     total cpu time spent up to now is       73.0 secs

     total energy              =   -1205.83032042 Ry
     Harris-Foulkes estimate   =   -1205.83073807 Ry
     estimated scf accuracy    <       0.00282218 Ry

     iteration #  5     ecut=    29.40 Ry     beta=0.10
     Davidson diagonalization with overlap
     ethr =  3.36E-06,  avg # of iterations =  2.7

     negative rho (up, down):  2.590E-03 0.000E+00
 
     Adding external electric field

     Computed dipole along edir(3) : 
        Dipole                0.0906 Ry au,          0.2304 Debye
        Dipole field          0.0006 Ry au
 
        Potential amp.       -0.0429 Ry
        Total length         35.2972 bohr
 

     total cpu time spent up to now is       74.6 secs

     total energy              =   -1205.83049378 Ry
     Harris-Foulkes estimate   =   -1205.83055780 Ry
     estimated scf accuracy    <       0.00076543 Ry

     iteration #  6     ecut=    29.40 Ry     beta=0.10
     Davidson diagonalization with overlap
     ethr =  9.11E-07,  avg # of iterations =  2.7

     negative rho (up, down):  2.631E-03 0.000E+00
 
     Adding external electric field

     Computed dipole along edir(3) : 
        Dipole                0.1103 Ry au,          0.2804 Debye
        Dipole field          0.0007 Ry au
 
        Potential amp.       -0.0522 Ry
        Total length         35.2972 bohr
 

     total cpu time spent up to now is       76.1 secs

     total energy              =   -1205.83051278 Ry
     Harris-Foulkes estimate   =   -1205.83058521 Ry
     estimated scf accuracy    <       0.00096540 Ry

     iteration #  7     ecut=    29.40 Ry     beta=0.10
     Davidson diagonalization with overlap
     ethr =  9.11E-07,  avg # of iterations =  4.5

     negative rho (up, down):  2.609E-03 0.000E+00
 
     Adding external electric field

     Computed dipole along edir(3) : 
        Dipole                0.1121 Ry au,          0.2850 Debye
        Dipole field          0.0008 Ry au
 
        Potential amp.       -0.0531 Ry
        Total length         35.2972 bohr
 

     total cpu time spent up to now is       78.0 secs

     total energy              =   -1205.83056147 Ry
     Harris-Foulkes estimate   =   -1205.83056263 Ry
     estimated scf accuracy    <       0.00005485 Ry

     iteration #  8     ecut=    29.40 Ry     beta=0.10
     Davidson diagonalization with overlap
     ethr =  6.53E-08,  avg # of iterations =  2.0

     negative rho (up, down):  2.560E-03 0.000E+00
 
     Adding external electric field

     Computed dipole along edir(3) : 
        Dipole                0.1124 Ry au,          0.2857 Debye
        Dipole field          0.0008 Ry au
 
        Potential amp.       -0.0532 Ry
        Total length         35.2972 bohr
 

     total cpu time spent up to now is       79.4 secs

     total energy              =   -1205.83056986 Ry
     Harris-Foulkes estimate   =   -1205.83056639 Ry
     estimated scf accuracy    <       0.00000829 Ry

     iteration #  9     ecut=    29.40 Ry     beta=0.10
     Davidson diagonalization with overlap
     ethr =  9.87E-09,  avg # of iterations =  1.0

     negative rho (up, down):  2.527E-03 0.000E+00
 
     Adding external electric field

     Computed dipole along edir(3) : 
        Dipole                0.1119 Ry au,          0.2845 Debye
        Dipole field          0.0008 Ry au
 
        Potential amp.       -0.0530 Ry
        Total length         35.2972 bohr
 

     total cpu time spent up to now is       80.8 secs

     total energy              =   -1205.83057206 Ry
     Harris-Foulkes estimate   =   -1205.83057071 Ry
     estimated scf accuracy    <       0.00000422 Ry

     iteration # 10     ecut=    29.40 Ry     beta=0.10
     Davidson diagonalization with overlap
     ethr =  5.02E-09,  avg # of iterations =  2.0

     negative rho (up, down):  2.331E-03 0.000E+00
 
     Adding external electric field

     Computed dipole along edir(3) : 
        Dipole                0.1086 Ry au,          0.2761 Debye
        Dipole field          0.0007 Ry au
 
        Potential amp.       -0.0515 Ry
        Total length         35.2972 bohr
 

     total cpu time spent up to now is       82.3 secs

     End of self-consistent calculation

          k = 0.0000 0.0000 0.0000 (  5071 PWs)   bands (ev):

   -90.6731 -90.3981 -90.3605 -90.3050 -54.1928 -54.1185 -54.0779 -53.9306
   -53.8450 -53.8132 -53.8060 -53.7975 -53.7916 -53.7675 -53.7248 -53.7177
   -14.7349  -6.0247  -5.5131  -4.7388  -4.6654  -4.4991  -4.3278  -3.6306
    -3.3149  -3.1707  -3.1410  -3.0481  -3.0440  -2.8862  -2.7711  -2.2245
    -2.1681  -1.9517  -1.8642  -1.7395  -1.6713  -1.6300  -1.3949  -1.2966
     0.0870   0.4769   1.4225   2.4929   3.2178   4.7535   5.3440   5.8198
     6.3427   6.6980   7.1803   7.9097   8.6930   9.2756   9.6782   9.9379
    10.6839  10.8795  11.2340  11.5722  11.7590  12.2531  12.6032  12.8528
    13.1601  13.5816  13.9354  14.5262  14.8102  15.2407  15.7944  16.3562

          k = 0.0000 0.0998 0.0000 (  5031 PWs)   bands (ev):

   -90.6702 -90.3946 -90.3582 -90.3023 -54.1860 -54.1260 -54.1048 -53.9126
   -53.8791 -53.8433 -53.8240 -53.8063 -53.7887 -53.7747 -53.7539 -53.7180
   -14.2903  -6.2147  -4.9804  -4.2225  -4.0860  -3.9365  -3.8222  -3.6071
    -3.5202  -3.2804  -3.1293  -2.9762  -2.9133  -2.6983  -2.6474  -2.5635
    -2.4601  -2.3492  -2.1673  -2.0747  -1.9329  -1.7138  -1.5752  -1.0290
    -0.5954   1.3075   1.8538   3.3497   4.7175   6.0939   6.4951   7.0076
     7.7055   8.0768   8.2021   8.6846   8.9388   9.4507   9.6981  10.4344
    10.6270  10.8071  11.0526  11.3383  11.8604  12.3072  12.4885  13.0890
    13.4100  13.6803  13.9731  14.2771  14.8151  15.0465  15.5080  15.5709

          k = 0.0000-0.1996 0.0000 (  5048 PWs)   bands (ev):

   -90.6673 -90.3916 -90.3555 -90.2995 -54.1829 -54.1666 -54.1040 -53.9338
   -53.9220 -53.8477 -53.8290 -53.8084 -53.8027 -53.7785 -53.7542 -53.7224
   -13.7453  -6.9736  -4.9404  -4.5988  -4.5307  -4.4284  -4.2550  -4.1086
    -3.8506  -3.4361  -2.9410  -2.9264  -2.7094  -2.2762  -2.0924  -1.8477
    -1.7773  -1.7471  -1.4847  -1.3518  -1.3008  -1.2742  -0.9131  -0.6066
     1.9131   2.2475   2.8594   3.1185   4.7033   5.6961   6.1478   6.4035
     8.0240   8.1723   8.6124   9.9930  10.1291  10.4259  10.6784  10.7679
    11.0103  11.1082  11.3395  11.4022  11.5500  12.0736  12.2579  12.4811
    12.5973  12.6918  13.1338  13.1653  13.4810  13.6480  14.0629  14.3980

          k =-0.0864 0.0499 0.0000 (  5024 PWs)   bands (ev):

   -90.6730 -90.3972 -90.3614 -90.3050 -54.1876 -54.1141 -54.0763 -53.8888
   -53.8514 -53.8384 -53.8113 -53.8036 -53.7970 -53.7724 -53.7246 -53.7158
   -14.7232  -5.8817  -5.2286  -4.3242  -4.1863  -4.0406  -3.9420  -3.5780
    -3.3926  -3.3682  -3.1474  -2.8263  -2.7691  -2.6659  -2.5963  -2.5286
    -2.4374  -2.3702  -2.2877  -2.1486  -2.0923  -1.9509  -1.7427  -1.5912
    -1.2103  -0.0059   1.2563   1.9907   3.7837   5.1006   5.9301   6.3578
     6.6852   6.9277   7.2186   7.9347   8.2203   8.6124   9.1279   9.9636
    10.5868  10.8895  11.2089  11.7977  12.1187  12.7518  13.6922  14.0405
    14.4403  14.4855  15.3189  15.4528  15.8551  16.2724  16.3291  16.8196

          k =-0.0864 0.1497 0.0000 (  5031 PWs)   bands (ev):

   -90.6702 -90.3946 -90.3582 -90.3023 -54.1860 -54.1286 -54.1021 -53.9089
   -53.8822 -53.8487 -53.8194 -53.8061 -53.7887 -53.7747 -53.7540 -53.7180
   -14.2905  -6.2143  -5.0055  -4.2308  -4.0266  -3.8886  -3.7946  -3.6935
    -3.4854  -3.2671  -3.1332  -3.0261  -2.8646  -2.7200  -2.6320  -2.5370
    -2.5034  -2.3438  -2.2046  -2.0919  -1.9955  -1.7029  -1.5951  -1.0278
    -0.5283   1.4337   1.7808   3.3763   4.6446   6.1169   6.4840   6.9464
     7.7180   8.0551   8.1991   8.6697   8.8615   9.4265   9.7205  10.4908
    10.6741  10.8317  11.0552  11.4464  11.8157  12.0772  12.7662  13.0650
    13.5651  13.7592  14.0733  14.4563  14.7872  14.8962  15.4580  15.5557

          k =-0.0864-0.1497 0.0000 (  5038 PWs)   bands (ev):

   -90.6673 -90.3916 -90.3556 -90.2995 -54.1800 -54.1641 -54.1013 -53.9200
   -53.8887 -53.8813 -53.8431 -53.8144 -53.8053 -53.7799 -53.7541 -53.7216
   -13.7522  -6.9757  -4.5871  -4.0847  -3.9483  -3.8759  -3.7264  -3.6808
    -3.6780  -3.3176  -3.1314  -3.0412  -2.9436  -2.8722  -2.7174  -2.6742
    -2.5130  -2.2671  -2.0275  -1.8819  -1.6472  -1.4413  -0.8345  -0.4307
     1.5610   1.7566   3.3148   4.1294   5.4493   7.6310   7.7601   8.0062
     8.0765   8.5623   8.8204   9.1125   9.4942   9.5784   9.8421   9.9943
    10.4208  10.7319  10.9013  11.2455  11.5388  11.7946  12.0863  12.3985
    12.8487  13.3446  13.6702  13.8107  14.1775  14.5423  14.7282  14.8765

     the Fermi energy is     1.6962 ev

!    total energy              =   -1205.83058442 Ry
     Harris-Foulkes estimate   =   -1205.83057750 Ry
     estimated scf accuracy    <       0.00000089 Ry

     The total energy is the sum of the following terms:

     one-electron contribution =   -5981.82435033 Ry
     hartree contribution      =    2988.52258747 Ry
     xc contribution           =    -123.18960456 Ry
     ewald contribution        =    1910.66959873 Ry
     electric field correction =       0.00007918 Ry
     smearing contrib. (-TS)   =      -0.00889492 Ry

     convergence has been achieved in  10 iterations

     Forces acting on atoms (Ry/au):


     negative rho (up, down):  2.331E-03 0.000E+00
     atom    1 type  1   force =    -0.00225079    0.00197489   -0.00939688
     atom    2 type  1   force =     0.00292487   -0.00177474   -0.01462675
     atom    3 type  1   force =     0.00508217   -0.00850265    0.02330303
     atom    4 type  1   force =    -0.00488117    0.01443769   -0.02125032
     atom    5 type  2   force =    -0.00711130    0.02825618   -0.01979664
     atom    6 type  3   force =    -0.00829755   -0.02959762   -0.01768405
     atom    7 type  3   force =    -0.00660432    0.00346685    0.04939469
     atom    8 type  3   force =     0.02113808   -0.00826060    0.01005692

     Total force =     0.085194     Total SCF correction =     0.006689
 !ASE
     Check: negative starting charge=   -0.002355
     NEW-OLD atomic charge density approx. for the potential
     Check: negative starting charge=   -0.002357

     negative rho (up, down):  2.344E-03 0.000E+00
 
     Adding external electric field

     Computed dipole along edir(3) : 
        Dipole                0.1086 Ry au,          0.2761 Debye
        Dipole field          0.0007 Ry au
 
        Potential amp.       -0.0515 Ry
        Total length         35.2972 bohr
 

     total cpu time spent up to now is       83.6 secs

     per-process dynamical memory:    31.3 Mb

     Self-consistent Calculation

     iteration #  1     ecut=    29.40 Ry     beta=0.10
     Davidson diagonalization with overlap
     ethr =  5.02E-09,  avg # of iterations =  5.2

     negative rho (up, down):  2.342E-03 0.000E+00
 
     Adding external electric field

     Computed dipole along edir(3) : 
        Dipole                0.0734 Ry au,          0.1866 Debye
        Dipole field          0.0005 Ry au
 
        Potential amp.       -0.0348 Ry
        Total length         35.2972 bohr
 

     total cpu time spent up to now is       86.8 secs

     total energy              =   -1205.83671622 Ry
     Harris-Foulkes estimate   =   -1205.83786467 Ry
     estimated scf accuracy    <       0.00766963 Ry

     iteration #  2     ecut=    29.40 Ry     beta=0.10
     Davidson diagonalization with overlap
     ethr =  9.13E-06,  avg # of iterations =  3.2

     negative rho (up, down):  2.341E-03 0.000E+00
 
     Adding external electric field

     Computed dipole along edir(3) : 
        Dipole                0.0935 Ry au,          0.2376 Debye
        Dipole field          0.0006 Ry au
 
        Potential amp.       -0.0443 Ry
        Total length         35.2972 bohr
 

     total cpu time spent up to now is       88.4 secs

     total energy              =   -1205.83696120 Ry
     Harris-Foulkes estimate   =   -1205.83732600 Ry
     estimated scf accuracy    <       0.00455942 Ry

     iteration #  3     ecut=    29.40 Ry     beta=0.10
     Davidson diagonalization with overlap
     ethr =  5.43E-06,  avg # of iterations =  3.0

     negative rho (up, down):  2.346E-03 0.000E+00
 
     Adding external electric field

     Computed dipole along edir(3) : 
        Dipole                0.0920 Ry au,          0.2338 Debye
        Dipole field          0.0006 Ry au
 
        Potential amp.       -0.0436 Ry
        Total length         35.2972 bohr
 

     total cpu time spent up to now is       90.0 secs

     total energy              =   -1205.83682598 Ry
     Harris-Foulkes estimate   =   -1205.83712595 Ry
     estimated scf accuracy    <       0.00186461 Ry

     iteration #  4     ecut=    29.40 Ry     beta=0.10
     Davidson diagonalization with overlap
     ethr =  2.22E-06,  avg # of iterations =  2.0

     negative rho (up, down):  2.377E-03 0.000E+00
 
     Adding external electric field

     Computed dipole along edir(3) : 
        Dipole                0.0971 Ry au,          0.2468 Debye
        Dipole field          0.0007 Ry au
 
        Potential amp.       -0.0460 Ry
        Total length         35.2972 bohr
 

     total cpu time spent up to now is       91.5 secs

     total energy              =   -1205.83681277 Ry
     Harris-Foulkes estimate   =   -1205.83690154 Ry
     estimated scf accuracy    <       0.00074312 Ry

     iteration #  5     ecut=    29.40 Ry     beta=0.10
     Davidson diagonalization with overlap
     ethr =  8.85E-07,  avg # of iterations =  2.3

     negative rho (up, down):  2.395E-03 0.000E+00
 
     Adding external electric field

     Computed dipole along edir(3) : 
        Dipole                0.0991 Ry au,          0.2520 Debye
        Dipole field          0.0007 Ry au
 
        Potential amp.       -0.0470 Ry
        Total length         35.2972 bohr
 

     total cpu time spent up to now is       93.0 secs

     total energy              =   -1205.83688857 Ry
     Harris-Foulkes estimate   =   -1205.83687722 Ry
     estimated scf accuracy    <       0.00014403 Ry

     iteration #  6     ecut=    29.40 Ry     beta=0.10
     Davidson diagonalization with overlap
     ethr =  1.71E-07,  avg # of iterations =  2.0

     negative rho (up, down):  2.393E-03 0.000E+00
 
     Adding external electric field

     Computed dipole along edir(3) : 
        Dipole                0.1043 Ry au,          0.2651 Debye
        Dipole field          0.0007 Ry au
 
        Potential amp.       -0.0494 Ry
        Total length         35.2972 bohr
 

     total cpu time spent up to now is       94.4 secs

     total energy              =   -1205.83689522 Ry
     Harris-Foulkes estimate   =   -1205.83689949 Ry
     estimated scf accuracy    <       0.00010971 Ry

     iteration #  7     ecut=    29.40 Ry     beta=0.10
     Davidson diagonalization with overlap
     ethr =  1.31E-07,  avg # of iterations =  2.3

     negative rho (up, down):  2.392E-03 0.000E+00
 
     Adding external electric field

     Computed dipole along edir(3) : 
        Dipole                0.1049 Ry au,          0.2667 Debye
        Dipole field          0.0007 Ry au
 
        Potential amp.       -0.0497 Ry
        Total length         35.2972 bohr
 

     total cpu time spent up to now is       95.9 secs

     total energy              =   -1205.83690732 Ry
     Harris-Foulkes estimate   =   -1205.83690519 Ry
     estimated scf accuracy    <       0.00002027 Ry

     iteration #  8     ecut=    29.40 Ry     beta=0.10
     Davidson diagonalization with overlap
     ethr =  2.41E-08,  avg # of iterations =  2.3

     negative rho (up, down):  2.384E-03 0.000E+00
 
     Adding external electric field

     Computed dipole along edir(3) : 
        Dipole                0.1046 Ry au,          0.2660 Debye
        Dipole field          0.0007 Ry au
 
        Potential amp.       -0.0496 Ry
        Total length         35.2972 bohr
 

     total cpu time spent up to now is       97.4 secs

     total energy              =   -1205.83690926 Ry
     Harris-Foulkes estimate   =   -1205.83690910 Ry
     estimated scf accuracy    <       0.00000457 Ry

     iteration #  9     ecut=    29.40 Ry     beta=0.10
     Davidson diagonalization with overlap
     ethr =  5.44E-09,  avg # of iterations =  1.0

     negative rho (up, down):  2.377E-03 0.000E+00
 
     Adding external electric field

     Computed dipole along edir(3) : 
        Dipole                0.1041 Ry au,          0.2646 Debye
        Dipole field          0.0007 Ry au
 
        Potential amp.       -0.0493 Ry
        Total length         35.2972 bohr
 

     total cpu time spent up to now is       98.7 secs

     total energy              =   -1205.83690970 Ry
     Harris-Foulkes estimate   =   -1205.83691011 Ry
     estimated scf accuracy    <       0.00000184 Ry

     iteration # 10     ecut=    29.40 Ry     beta=0.10
     Davidson diagonalization with overlap
     ethr =  2.19E-09,  avg # of iterations =  2.0

     negative rho (up, down):  2.343E-03 0.000E+00
 
     Adding external electric field

     Computed dipole along edir(3) : 
        Dipole                0.1029 Ry au,          0.2615 Debye
        Dipole field          0.0007 Ry au
 
        Potential amp.       -0.0487 Ry
        Total length         35.2972 bohr
 

     total cpu time spent up to now is      100.2 secs

     End of self-consistent calculation

          k = 0.0000 0.0000 0.0000 (  5071 PWs)   bands (ev):

   -90.7119 -90.4240 -90.3945 -90.3229 -54.2420 -54.1459 -54.1138 -53.9589
   -53.8727 -53.8421 -53.8340 -53.8305 -53.8163 -53.7920 -53.7448 -53.7376
   -14.8463  -5.9689  -5.3888  -4.7772  -4.6888  -4.5250  -4.3532  -3.6619
    -3.3262  -3.1998  -3.1682  -3.0762  -3.0737  -2.9213  -2.7949  -2.2519
    -2.1953  -1.9794  -1.8841  -1.7711  -1.6993  -1.6554  -1.4215  -1.3255
     0.1102   0.3885   1.4239   2.4826   3.2171   4.7934   5.3329   5.8634
     6.3435   6.6775   7.1196   7.9895   8.6767   9.2066   9.6287  10.0678
    10.7396  10.8511  11.2758  11.5946  11.7458  12.2667  12.6195  12.8721
    13.1978  13.5391  13.9341  14.5345  14.8148  15.2643  15.8518  16.3908

          k = 0.0000 0.0998 0.0000 (  5031 PWs)   bands (ev):

   -90.7090 -90.4203 -90.3925 -90.3202 -54.2353 -54.1582 -54.1361 -53.9409
   -53.9053 -53.8775 -53.8551 -53.8304 -53.8145 -53.7973 -53.7775 -53.7369
   -14.4122  -5.9380  -5.0630  -4.2513  -4.1060  -3.9658  -3.8503  -3.6358
    -3.5548  -3.2975  -3.1539  -3.0054  -2.9438  -2.7259  -2.6767  -2.6024
    -2.4911  -2.3760  -2.1956  -2.0996  -1.9623  -1.7406  -1.6019  -1.1068
    -0.6408   1.2709   1.8086   3.3531   4.7118   6.1759   6.5031   7.0498
     7.7705   8.0787   8.1771   8.6828   8.9957   9.5009   9.7474  10.5146
    10.6066  10.7972  11.0970  11.2859  11.8683  12.3432  12.4721  13.2695
    13.4433  13.6949  14.0007  14.3259  14.7808  15.0442  15.5117  15.5768

          k = 0.0000-0.1996 0.0000 (  5048 PWs)   bands (ev):

   -90.7061 -90.4172 -90.3899 -90.3174 -54.2323 -54.2003 -54.1336 -53.9616
   -53.9524 -53.8770 -53.8613 -53.8310 -53.8268 -53.7984 -53.7861 -53.7392
   -13.8848  -6.6926  -5.0212  -4.6269  -4.5573  -4.4525  -4.2858  -4.1381
    -3.8889  -3.4665  -2.9980  -2.9686  -2.7336  -2.2984  -2.1190  -1.8762
    -1.8024  -1.7691  -1.5156  -1.3784  -1.3331  -1.2988  -1.0509  -0.6075
     1.8753   2.2074   2.8268   3.0863   4.6762   5.7947   6.1196   6.3734
     8.1415   8.1898   9.0107  10.0035  10.1596  10.3978  10.6770  10.7700
    11.0084  11.1354  11.3764  11.4230  11.5708  12.1448  12.2824  12.4465
    12.6075  12.7034  13.1690  13.1759  13.5320  13.6497  14.1107  14.3783

          k =-0.0864 0.0499 0.0000 (  5024 PWs)   bands (ev):

   -90.7118 -90.4228 -90.3957 -90.3230 -54.2371 -54.1417 -54.1123 -53.9142
   -53.8850 -53.8649 -53.8382 -53.8345 -53.8228 -53.7977 -53.7447 -53.7358
   -14.8358  -5.6425  -5.2918  -4.3506  -4.2191  -4.0673  -3.9634  -3.6044
    -3.4218  -3.3844  -3.1718  -2.8477  -2.7879  -2.6955  -2.6288  -2.5554
    -2.4680  -2.3986  -2.3117  -2.1780  -2.1151  -1.9838  -1.7708  -1.6168
    -1.2457  -0.0363   1.2354   1.9204   3.7935   5.1329   5.9925   6.3973
     6.6937   6.9361   7.2863   7.9691   8.2069   8.5763   9.2285   9.8185
    10.5993  10.8776  11.2507  11.7617  12.0934  12.8445  13.6865  14.0514
    14.4579  14.5144  15.2909  15.8041  15.8751  16.2592  16.2859  16.7934

          k =-0.0864 0.1497 0.0000 (  5031 PWs)   bands (ev):

   -90.7090 -90.4203 -90.3925 -90.3202 -54.2354 -54.1598 -54.1343 -53.9369
   -53.9088 -53.8828 -53.8504 -53.8303 -53.8146 -53.7972 -53.7776 -53.7369
   -14.4124  -5.9387  -5.0910  -4.2529  -4.0540  -3.9169  -3.8236  -3.7163
    -3.5116  -3.2936  -3.1597  -3.0528  -2.8913  -2.7509  -2.6577  -2.5849
    -2.5303  -2.3714  -2.2301  -2.1182  -2.0214  -1.7312  -1.6220  -1.0773
    -0.6100   1.3973   1.7403   3.3763   4.6431   6.1823   6.4988   6.9997
     7.7597   8.0477   8.1850   8.6923   8.9473   9.4358   9.7654  10.5112
    10.7114  10.8594  11.0715  11.4241  11.8716  12.1692  12.6891  13.1601
    13.6058  13.7888  14.0867  14.4228  14.7800  14.9132  15.4836  15.5679

          k =-0.0864-0.1497 0.0000 (  5038 PWs)   bands (ev):

   -90.7061 -90.4172 -90.3899 -90.3174 -54.2296 -54.1980 -54.1309 -53.9465
   -53.9231 -53.9067 -53.8766 -53.8364 -53.8287 -53.8000 -53.7862 -53.7385
   -13.8908  -6.6963  -4.6967  -4.1070  -3.9793  -3.9012  -3.7574  -3.7102
    -3.7071  -3.3593  -3.1656  -3.0585  -2.9661  -2.8991  -2.7520  -2.7045
    -2.5524  -2.2960  -2.0532  -1.9061  -1.6804  -1.4641  -0.9772  -0.4307
     1.5451   1.7180   3.3105   4.1057   5.4412   7.7516   7.9398   8.0206
     8.1429   8.6078   8.8396   9.1077   9.4916   9.6358   9.8336  10.0360
    10.4610  10.7291  10.8952  11.2297  11.5777  11.8241  12.0265  12.4149
    12.8929  13.3086  13.6881  13.8937  14.1656  14.5864  14.6886  14.8858

     the Fermi energy is     1.6595 ev

!    total energy              =   -1205.83691223 Ry
     Harris-Foulkes estimate   =   -1205.83691151 Ry
     estimated scf accuracy    <       0.00000012 Ry

     The total energy is the sum of the following terms:

     one-electron contribution =   -5971.64222241 Ry
     hartree contribution      =    2983.39077010 Ry
     xc contribution           =    -123.22033310 Ry
     ewald contribution        =    1905.64411502 Ry
     electric field correction =       0.00007104 Ry
     smearing contrib. (-TS)   =      -0.00931288 Ry

     convergence has been achieved in  10 iterations

     Forces acting on atoms (Ry/au):


     negative rho (up, down):  2.343E-03 0.000E+00
     atom    1 type  1   force =    -0.00224020    0.00193225   -0.00936849
     atom    2 type  1   force =     0.00297398   -0.00179132   -0.01542001
     atom    3 type  1   force =     0.00507654   -0.00791192    0.02294071
     atom    4 type  1   force =    -0.00134738    0.00963367   -0.01409498
     atom    5 type  2   force =     0.00354795   -0.06599080   -0.08977044
     atom    6 type  3   force =    -0.03094409    0.03519825    0.06666706
     atom    7 type  3   force =     0.00403427    0.03529729    0.02214385
     atom    8 type  3   force =     0.01889893   -0.00636741    0.01690231

     Total force =     0.150855     Total SCF correction =     0.001082
 !ASE
     Check: negative starting charge=   -0.002357
     NEW-OLD atomic charge density approx. for the potential
     Check: negative starting charge=   -0.002338

     negative rho (up, down):  2.319E-03 0.000E+00
 
     Adding external electric field

     Computed dipole along edir(3) : 
        Dipole                0.1029 Ry au,          0.2615 Debye
        Dipole field          0.0007 Ry au
 
        Potential amp.       -0.0487 Ry
        Total length         35.2972 bohr
 

     total cpu time spent up to now is      101.5 secs

     per-process dynamical memory:    31.3 Mb

     Self-consistent Calculation

     iteration #  1     ecut=    29.40 Ry     beta=0.10
     Davidson diagonalization with overlap
     ethr =  2.19E-09,  avg # of iterations = 10.0

     negative rho (up, down):  2.317E-03 0.000E+00
 
     Adding external electric field

     Computed dipole along edir(3) : 
        Dipole                0.1294 Ry au,          0.3289 Debye
        Dipole field          0.0009 Ry au
 
        Potential amp.       -0.0613 Ry
        Total length         35.2972 bohr
 

     total cpu time spent up to now is      105.2 secs

     total energy              =   -1205.84043510 Ry
     Harris-Foulkes estimate   =   -1205.84128577 Ry
     estimated scf accuracy    <       0.00797248 Ry

     iteration #  2     ecut=    29.40 Ry     beta=0.10
     Davidson diagonalization with overlap
     ethr =  9.49E-06,  avg # of iterations =  3.0

     negative rho (up, down):  2.315E-03 0.000E+00
 
     Adding external electric field

     Computed dipole along edir(3) : 
        Dipole                0.1097 Ry au,          0.2787 Debye
        Dipole field          0.0007 Ry au
 
        Potential amp.       -0.0519 Ry
        Total length         35.2972 bohr
 

     total cpu time spent up to now is      106.9 secs

     total energy              =   -1205.84060426 Ry
     Harris-Foulkes estimate   =   -1205.84096267 Ry
     estimated scf accuracy    <       0.00495133 Ry

     iteration #  3     ecut=    29.40 Ry     beta=0.10
     Davidson diagonalization with overlap
     ethr =  5.89E-06,  avg # of iterations =  2.5

     negative rho (up, down):  2.320E-03 0.000E+00
 
     Adding external electric field

     Computed dipole along edir(3) : 
        Dipole                0.1080 Ry au,          0.2746 Debye
        Dipole field          0.0007 Ry au
 
        Potential amp.       -0.0512 Ry
        Total length         35.2972 bohr
 

     total cpu time spent up to now is      108.4 secs

     total energy              =   -1205.84048541 Ry
     Harris-Foulkes estimate   =   -1205.84074602 Ry
     estimated scf accuracy    <       0.00263160 Ry

     iteration #  4     ecut=    29.40 Ry     beta=0.10
     Davidson diagonalization with overlap
     ethr =  3.13E-06,  avg # of iterations =  2.0

     negative rho (up, down):  2.352E-03 0.000E+00
 
     Adding external electric field

     Computed dipole along edir(3) : 
        Dipole                0.1106 Ry au,          0.2812 Debye
        Dipole field          0.0007 Ry au
 
        Potential amp.       -0.0524 Ry
        Total length         35.2972 bohr
 

     total cpu time spent up to now is      109.8 secs

     total energy              =   -1205.84061159 Ry
     Harris-Foulkes estimate   =   -1205.84058784 Ry
     estimated scf accuracy    <       0.00096282 Ry

     iteration #  5     ecut=    29.40 Ry     beta=0.10
     Davidson diagonalization with overlap
     ethr =  1.15E-06,  avg # of iterations =  2.0

     negative rho (up, down):  2.375E-03 0.000E+00
 
     Adding external electric field

     Computed dipole along edir(3) : 
        Dipole                0.1136 Ry au,          0.2888 Debye
        Dipole field          0.0008 Ry au
 
        Potential amp.       -0.0538 Ry
        Total length         35.2972 bohr
 

     total cpu time spent up to now is      111.3 secs

     total energy              =   -1205.84072191 Ry
     Harris-Foulkes estimate   =   -1205.84068237 Ry
     estimated scf accuracy    <       0.00020291 Ry

     iteration #  6     ecut=    29.40 Ry     beta=0.10
     Davidson diagonalization with overlap
     ethr =  2.42E-07,  avg # of iterations =  2.0

     negative rho (up, down):  2.375E-03 0.000E+00
 
     Adding external electric field

[...]

     Computed dipole along edir(3) : 
        Dipole                0.0048 Ry au,          0.0123 Debye
        Dipole field          0.0000 Ry au
 
        Potential amp.       -0.0023 Ry
        Total length         35.2972 bohr
 

     total cpu time spent up to now is      567.7 secs

     total energy              =   -1205.86491312 Ry
     Harris-Foulkes estimate   =   -1205.86491363 Ry
     estimated scf accuracy    <       0.00000717 Ry

     iteration #  3     ecut=    29.40 Ry     beta=0.10
     Davidson diagonalization with overlap
     ethr =  8.21E-09,  avg # of iterations =  1.0

     negative rho (up, down):  2.415E-03 0.000E+00
 
     Adding external electric field

     Computed dipole along edir(3) : 
        Dipole                0.0049 Ry au,          0.0125 Debye
        Dipole field          0.0000 Ry au
 
        Potential amp.       -0.0023 Ry
        Total length         35.2972 bohr
 

     total cpu time spent up to now is      569.0 secs

     total energy              =   -1205.86491289 Ry
     Harris-Foulkes estimate   =   -1205.86491338 Ry
     estimated scf accuracy    <       0.00000220 Ry

     iteration #  4     ecut=    29.40 Ry     beta=0.10
     Davidson diagonalization with overlap
     ethr =  2.62E-09,  avg # of iterations =  2.0

     negative rho (up, down):  2.416E-03 0.000E+00
 
     Adding external electric field

     Computed dipole along edir(3) : 
        Dipole                0.0056 Ry au,          0.0142 Debye
        Dipole field          0.0000 Ry au
 
        Potential amp.       -0.0026 Ry
        Total length         35.2972 bohr
 

     total cpu time spent up to now is      570.4 secs

     End of self-consistent calculation

          k = 0.0000 0.0000 0.0000 (  5071 PWs)   bands (ev):

   -90.6896 -90.5639 -90.5326 -90.5159 -54.2106 -54.1359 -54.0908 -54.0761
   -54.0288 -54.0074 -53.9936 -53.9725 -53.9574 -53.9408 -53.9382 -53.9189
   -14.7847  -6.3559  -5.1737  -4.8111  -4.7029  -4.5630  -4.3675  -3.6902
    -3.4129  -3.3241  -3.3080  -3.1961  -3.1897  -2.9757  -2.9233  -2.3541
    -2.3269  -2.2312  -1.9811  -1.9402  -1.8599  -1.8107  -1.5531  -1.4452
     0.0128   0.3140   1.7347   2.0383   2.8158   4.9843   5.2902   5.5904
     6.1868   6.6971   7.1160   8.5644   8.7198   9.5599   9.8927  10.2026
    10.6386  10.8876  11.2930  11.5987  11.7617  12.4536  12.6243  12.8759
    13.1434  13.3212  13.9547  14.2717  15.1555  15.3671  15.5919  16.4118

          k = 0.0000 0.0998 0.0000 (  5031 PWs)   bands (ev):

   -90.6866 -90.5611 -90.5284 -90.5146 -54.2042 -54.1325 -54.1183 -54.0573
   -54.0481 -54.0349 -54.0073 -53.9992 -53.9832 -53.9661 -53.9392 -53.9157
   -14.3593  -5.7465  -5.2564  -4.3201  -4.1591  -4.0591  -3.9372  -3.7799
    -3.5936  -3.4609  -3.3217  -3.0953  -2.9837  -2.8310  -2.8126  -2.6947
    -2.6244  -2.5078  -2.3433  -2.2550  -2.1489  -1.8688  -1.7644  -1.1426
    -0.7809   1.1267   1.6944   3.2713   4.6762   6.3645   6.6382   7.0333
     7.7723   7.9862   8.0572   8.7708   9.0969   9.6872   9.8524  10.3185
    10.5251  10.9964  11.1607  11.3592  11.7086  12.1944  12.3769  12.9796
    13.4651  13.8048  14.1233  14.4292  14.7299  15.1079  15.5294  15.6687

          k = 0.0000-0.1996 0.0000 (  5048 PWs)   bands (ev):

   -90.6836 -90.5582 -90.5251 -90.5124 -54.2131 -54.1707 -54.1224 -54.0779
   -54.0655 -54.0579 -54.0312 -53.9899 -53.9818 -53.9731 -53.9440 -53.9138
   -13.8465  -6.3067  -5.6152  -4.6848  -4.6344  -4.4837  -4.3837  -4.2321
    -3.7836  -3.5089  -3.0893  -2.9399  -2.8501  -2.6572  -2.2881  -1.9850
    -1.9615  -1.9501  -1.5670  -1.5423  -1.4458  -1.4413  -1.2017  -0.6850
     1.5124   2.0891   2.6524   2.9099   5.0890   5.5256   6.0060   6.6914
     8.1944   8.6756   9.0981   9.6734   9.9784  10.4959  10.5912  10.8262
    11.2025  11.2287  11.3527  11.5197  11.7218  12.0841  12.2527  12.4501
    12.5807  12.7362  13.2349  13.3008  13.3528  13.5795  13.8602  14.4996

          k =-0.0864 0.0499 0.0000 (  5024 PWs)   bands (ev):

   -90.6894 -90.5641 -90.5305 -90.5180 -54.1959 -54.1229 -54.0865 -54.0523
   -54.0289 -54.0131 -54.0093 -53.9935 -53.9614 -53.9502 -53.9373 -53.9180
   -14.7747  -5.8872  -5.0184  -4.3687  -4.2223  -4.1738  -4.1391  -3.7439
    -3.6086  -3.3948  -3.3531  -2.9299  -2.8494  -2.7944  -2.7497  -2.6737
    -2.5710  -2.5533  -2.4776  -2.2804  -2.2435  -2.1146  -1.8830  -1.8121
    -1.1251  -0.4498   0.9130   1.8816   3.5153   5.3245   6.0253   6.7164
     6.7628   6.9515   7.4623   8.2369   8.3045   8.7435   9.4142  10.1516
    10.5649  10.8701  11.3681  11.6147  11.9717  12.4840  13.3607  13.9643
    14.2960  14.6378  14.7424  15.4971  15.8270  16.0852  16.8038  16.9256

          k =-0.0864 0.1497 0.0000 (  5031 PWs)   bands (ev):

   -90.6866 -90.5611 -90.5284 -90.5146 -54.1984 -54.1451 -54.1129 -54.0617
   -54.0449 -54.0285 -54.0109 -54.0017 -53.9832 -53.9640 -53.9391 -53.9157
   -14.3596  -5.6932  -5.1954  -4.3366  -4.1692  -4.0940  -3.9192  -3.8419
    -3.6743  -3.4679  -3.2785  -3.1490  -2.9603  -2.8467  -2.8012  -2.7163
    -2.6300  -2.5045  -2.3182  -2.2449  -2.2071  -1.8525  -1.7777  -1.1734
    -0.6674   1.1909   1.6776   3.3049   4.6955   6.3165   6.6404   6.9403
     7.8390   7.9341   8.0498   8.7239   9.1141   9.6269   9.9171  10.4092
    10.5696  10.9735  11.1675  11.5076  11.7614  12.1970  12.4724  13.1058
    13.5696  13.7803  14.0914  14.2373  14.5503  14.9784  15.5655  15.6432

          k =-0.0864-0.1497 0.0000 (  5038 PWs)   bands (ev):

   -90.6836 -90.5582 -90.5251 -90.5124 -54.2052 -54.1575 -54.1120 -54.0939
   -54.0431 -54.0415 -54.0402 -54.0146 -54.0037 -53.9746 -53.9432 -53.9133
   -13.8520  -6.2826  -5.2614  -4.1271  -4.0640  -4.0000  -3.9176  -3.8626
    -3.6944  -3.3454  -3.2662  -3.2022  -3.1366  -3.0180  -2.8376  -2.8121
    -2.6938  -2.2765  -2.2650  -2.0895  -1.8538  -1.6603  -1.0409  -0.4670
     1.4160   1.4938   3.3324   3.8885   6.1593   7.3860   7.8443   7.9517
     8.1826   8.3959   8.9448   9.1429   9.4702   9.6367   9.8907  10.1061
    10.4336  10.6919  10.9606  11.2062  11.4243  11.6334  11.8839  12.4423
    13.0540  13.1202  13.4151  13.8185  14.2645  14.4669  14.7006  14.7741

     the Fermi energy is     1.5539 ev

!    total energy              =   -1205.86491307 Ry
     Harris-Foulkes estimate   =   -1205.86491305 Ry
     estimated scf accuracy    <       0.00000049 Ry

     The total energy is the sum of the following terms:

     one-electron contribution =   -5972.95865103 Ry
     hartree contribution      =    2983.88545720 Ry
     xc contribution           =    -123.23411088 Ry
     ewald contribution        =    1906.45142977 Ry
     electric field correction =       0.00000021 Ry
     smearing contrib. (-TS)   =      -0.00903833 Ry

     convergence has been achieved in   4 iterations

     Forces acting on atoms (Ry/au):


     negative rho (up, down):  2.416E-03 0.000E+00
     atom    1 type  1   force =    -0.00143004    0.00087802   -0.00189002
     atom    2 type  1   force =     0.00090495   -0.00002550   -0.01965943
     atom    3 type  1   force =    -0.01679886    0.00410214    0.00875991
     atom    4 type  1   force =     0.01698910   -0.00550636    0.01338523
     atom    5 type  2   force =    -0.01043728    0.00599507   -0.01052274
     atom    6 type  3   force =     0.00038573   -0.00054833   -0.00085347
     atom    7 type  3   force =    -0.00002950   -0.00048275    0.00032679
     atom    8 type  3   force =     0.01041591   -0.00441229    0.01045372

     Total force =     0.041976     Total SCF correction =     0.001885
 !ASE
     Check: negative starting charge=   -0.002383
     NEW-OLD atomic charge density approx. for the potential
     Check: negative starting charge=   -0.002383

     negative rho (up, down):  2.416E-03 0.000E+00
 
     Adding external electric field

     Computed dipole along edir(3) : 
        Dipole                0.0056 Ry au,          0.0142 Debye
        Dipole field          0.0000 Ry au
 
        Potential amp.       -0.0026 Ry
        Total length         35.2972 bohr
 

     total cpu time spent up to now is      571.6 secs

     per-process dynamical memory:    31.3 Mb

     Self-consistent Calculation

     iteration #  1     ecut=    29.40 Ry     beta=0.10
     Davidson diagonalization with overlap
     ethr =  2.62E-09,  avg # of iterations =  3.8

     negative rho (up, down):  2.416E-03 0.000E+00
 
     Adding external electric field

     Computed dipole along edir(3) : 
        Dipole                0.0056 Ry au,          0.0142 Debye
        Dipole field          0.0000 Ry au
 
        Potential amp.       -0.0027 Ry
        Total length         35.2972 bohr
 

     total cpu time spent up to now is      573.9 secs

     total energy              =   -1205.86491730 Ry
     Harris-Foulkes estimate   =   -1205.86491758 Ry
     estimated scf accuracy    <       0.00000429 Ry

     iteration #  2     ecut=    29.40 Ry     beta=0.10
     Davidson diagonalization with overlap
     ethr =  5.11E-09,  avg # of iterations =  1.0

     negative rho (up, down):  2.416E-03 0.000E+00
 
     Adding external electric field

     Computed dipole along edir(3) : 
        Dipole                0.0052 Ry au,          0.0131 Debye
        Dipole field          0.0000 Ry au
 
        Potential amp.       -0.0024 Ry
        Total length         35.2972 bohr
 

     total cpu time spent up to now is      575.2 secs

     total energy              =   -1205.86491712 Ry
     Harris-Foulkes estimate   =   -1205.86491738 Ry
     estimated scf accuracy    <       0.00000297 Ry

     iteration #  3     ecut=    29.40 Ry     beta=0.10
     Davidson diagonalization with overlap
     ethr =  3.54E-09,  avg # of iterations =  1.0

     negative rho (up, down):  2.416E-03 0.000E+00
 
     Adding external electric field

     Computed dipole along edir(3) : 
        Dipole                0.0053 Ry au,          0.0136 Debye
        Dipole field          0.0000 Ry au
 
        Potential amp.       -0.0025 Ry
        Total length         35.2972 bohr
 

     total cpu time spent up to now is      576.5 secs

     total energy              =   -1205.86491697 Ry
     Harris-Foulkes estimate   =   -1205.86491720 Ry
     estimated scf accuracy    <       0.00000273 Ry

     iteration #  4     ecut=    29.40 Ry     beta=0.10
     Davidson diagonalization with overlap
     ethr =  3.25E-09,  avg # of iterations =  1.0

     negative rho (up, down):  2.415E-03 0.000E+00
 
     Adding external electric field

     Computed dipole along edir(3) : 
        Dipole                0.0047 Ry au,          0.0120 Debye
        Dipole field          0.0000 Ry au
 
        Potential amp.       -0.0022 Ry
        Total length         35.2972 bohr
 

     total cpu time spent up to now is      577.8 secs

     End of self-consistent calculation

          k = 0.0000 0.0000 0.0000 (  5071 PWs)   bands (ev):

   -90.6877 -90.5639 -90.5319 -90.5151 -54.2090 -54.1342 -54.0890 -54.0752
   -54.0288 -54.0071 -53.9933 -53.9717 -53.9566 -53.9401 -53.9376 -53.9180
   -14.7817  -6.3565  -5.1721  -4.8095  -4.7021  -4.5621  -4.3670  -3.6895
    -3.4122  -3.3232  -3.3071  -3.1952  -3.1890  -2.9751  -2.9226  -2.3532
    -2.3260  -2.2292  -1.9804  -1.9391  -1.8592  -1.8100  -1.5523  -1.4444
     0.0168   0.3150   1.7354   2.0398   2.8160   4.9846   5.2907   5.5915
     6.1881   6.6969   7.1166   8.5636   8.7225   9.5582   9.8929  10.2019
    10.6391  10.8883  11.2925  11.5979  11.7629  12.4533  12.6240  12.8762
    13.1426  13.3221  13.9544  14.2713  15.1559  15.3657  15.5917  16.4121

          k = 0.0000 0.0998 0.0000 (  5031 PWs)   bands (ev):

   -90.6846 -90.5612 -90.5276 -90.5138 -54.2025 -54.1306 -54.1165 -54.0566
   -54.0478 -54.0349 -54.0067 -53.9985 -53.9828 -53.9653 -53.9386 -53.9148
   -14.3569  -5.7458  -5.2528  -4.3192  -4.1581  -4.0581  -3.9363  -3.7785
    -3.5925  -3.4599  -3.3207  -3.0942  -2.9834  -2.8302  -2.8116  -2.6940
    -2.6235  -2.5069  -2.3419  -2.2542  -2.1478  -1.8680  -1.7633  -1.1421
    -0.7801   1.1275   1.6947   3.2724   4.6765   6.3651   6.6388   7.0336
     7.7726   7.9874   8.0570   8.7713   9.0971   9.6880   9.8522  10.3189
    10.5249  10.9950  11.1598  11.3595  11.7092  12.1936  12.3789  12.9784
    13.4655  13.8048  14.1238  14.4294  14.7305  15.1060  15.5298  15.6686

          k = 0.0000-0.1996 0.0000 (  5048 PWs)   bands (ev):

   -90.6817 -90.5582 -90.5243 -90.5115 -54.2114 -54.1691 -54.1208 -54.0773
   -54.0648 -54.0570 -54.0312 -53.9891 -53.9815 -53.9726 -53.9432 -53.9130
   -13.8449  -6.2976  -5.6156  -4.6841  -4.6334  -4.4829  -4.3827  -4.2312
    -3.7830  -3.5083  -3.0882  -2.9389  -2.8499  -2.6559  -2.2867  -1.9844
    -1.9604  -1.9492  -1.5657  -1.5419  -1.4450  -1.4404  -1.2035  -0.6838
     1.5125   2.0897   2.6532   2.9108   5.0880   5.5280   6.0067   6.6914
     8.1944   8.6816   9.1030   9.6746   9.9759  10.4939  10.5893  10.8276
    11.2010  11.2283  11.3525  11.5191  11.7219  12.0839  12.2529  12.4498
    12.5785  12.7354  13.2346  13.3013  13.3526  13.5794  13.8615  14.4979

          k =-0.0864 0.0499 0.0000 (  5024 PWs)   bands (ev):

   -90.6875 -90.5642 -90.5298 -90.5172 -54.1941 -54.1210 -54.0846 -54.0524
   -54.0283 -54.0126 -54.0087 -53.9931 -53.9606 -53.9495 -53.9367 -53.9171
   -14.7718  -5.8874  -5.0164  -4.3681  -4.2220  -4.1730  -4.1386  -3.7430
    -3.6081  -3.3936  -3.3525  -2.9289  -2.8478  -2.7940  -2.7491  -2.6732
    -2.5699  -2.5526  -2.4768  -2.2798  -2.2425  -2.1135  -1.8817  -1.8117
    -1.1254  -0.4447   0.9157   1.8818   3.5183   5.3247   6.0250   6.7170
     6.7613   6.9512   7.4627   8.2363   8.3047   8.7425   9.4168  10.1521
    10.5654  10.8697  11.3692  11.6143  11.9721  12.4831  13.3603  13.9647
    14.2963  14.6378  14.7420  15.4961  15.8279  16.0859  16.8066  16.9276

          k =-0.0864 0.1497 0.0000 (  5031 PWs)   bands (ev):

   -90.6846 -90.5612 -90.5276 -90.5138 -54.1966 -54.1433 -54.1110 -54.0614
   -54.0444 -54.0283 -54.0103 -54.0010 -53.9828 -53.9632 -53.9385 -53.9148
   -14.3572  -5.6918  -5.1922  -4.3357  -4.1683  -4.0931  -3.9181  -3.8408
    -3.6735  -3.4672  -3.2774  -3.1484  -2.9597  -2.8460  -2.8003  -2.7152
    -2.6293  -2.5036  -2.3170  -2.2441  -2.2061  -1.8517  -1.7768  -1.1730
    -0.6663   1.1916   1.6783   3.3068   4.6961   6.3162   6.6416   6.9403
     7.8394   7.9346   8.0497   8.7238   9.1143   9.6262   9.9176  10.4099
    10.5700  10.9720  11.1679  11.5068  11.7619  12.1988  12.4688  13.1089
    13.5701  13.7799  14.0916  14.2386  14.5506  14.9789  15.5663  15.6426

          k =-0.0864-0.1497 0.0000 (  5038 PWs)   bands (ev):

   -90.6817 -90.5583 -90.5243 -90.5115 -54.2034 -54.1556 -54.1102 -54.0938
   -54.0431 -54.0407 -54.0397 -54.0138 -54.0029 -53.9744 -53.9424 -53.9125
   -13.8504  -6.2731  -5.2614  -4.1263  -4.0635  -3.9992  -3.9169  -3.8618
    -3.6945  -3.3455  -3.2649  -3.2011  -3.1355  -3.0169  -2.8367  -2.8111
    -2.6929  -2.2762  -2.2639  -2.0885  -1.8528  -1.6591  -1.0430  -0.4662
     1.4170   1.4948   3.3332   3.8905   6.1597   7.3886   7.8456   7.9512
     8.1838   8.3970   8.9463   9.1403   9.4717   9.6374   9.8898  10.1054
    10.4345  10.6925  10.9605  11.2064  11.4240  11.6340  11.8836  12.4426
    13.0520  13.1189  13.4152  13.8187  14.2643  14.4643  14.6993  14.7755

     the Fermi energy is     1.5545 ev

!    total energy              =   -1205.86491695 Ry
     Harris-Foulkes estimate   =   -1205.86491709 Ry
     estimated scf accuracy    <       0.00000089 Ry

     The total energy is the sum of the following terms:

     one-electron contribution =   -5972.85497768 Ry
     hartree contribution      =    2983.83111224 Ry
     xc contribution           =    -123.23392236 Ry
     ewald contribution        =    1906.40191330 Ry
     electric field correction =       0.00000015 Ry
     smearing contrib. (-TS)   =      -0.00904260 Ry

     convergence has been achieved in   4 iterations

     Forces acting on atoms (Ry/au):


     negative rho (up, down):  2.415E-03 0.000E+00
     atom    1 type  1   force =    -0.00144453    0.00089094   -0.00192288
     atom    2 type  1   force =     0.00091723   -0.00006402   -0.01973758
     atom    3 type  1   force =    -0.01685659    0.00408495    0.00875237
     atom    4 type  1   force =     0.01704745   -0.00554318    0.01331816
     atom    5 type  2   force =    -0.01025040    0.00447570   -0.01039153
     atom    6 type  3   force =    -0.00001496    0.00004277   -0.00052943
     atom    7 type  3   force =     0.00026813    0.00043133   -0.00004737
     atom    8 type  3   force =     0.01033367   -0.00431848    0.01055826

     Total force =     0.041757     Total SCF correction =     0.002669
 !ASE
 
     init_run     :      0.92s CPU      0.95s WALL (       1 calls)
     electrons    :    525.21s CPU    528.92s WALL (      39 calls)
     update_pot   :     19.62s CPU     19.81s WALL (      38 calls)
     forces       :     23.51s CPU     23.61s WALL (      39 calls)

     Called by init_run:
     wfcinit      :      0.33s CPU      0.33s WALL (       1 calls)
     potinit      :      0.14s CPU      0.14s WALL (       1 calls)

     Called by electrons:
     c_bands      :    401.81s CPU    404.41s WALL (     313 calls)
     sum_band     :     78.51s CPU     79.22s WALL (     313 calls)
     v_of_rho     :      8.47s CPU      8.57s WALL (     352 calls)
     newd         :     37.81s CPU     37.86s WALL (     352 calls)
     mix_rho      :      2.00s CPU      2.02s WALL (     313 calls)

     Called by c_bands:
     init_us_2    :      2.14s CPU      2.20s WALL (    3996 calls)
     cegterg      :    389.51s CPU    391.97s WALL (    1878 calls)

     Called by *egterg:
     h_psi        :    174.03s CPU    176.02s WALL (    6469 calls)
     s_psi        :     11.47s CPU     11.55s WALL (    6469 calls)
     g_psi        :      1.70s CPU      1.73s WALL (    4585 calls)
     cdiaghg      :    107.56s CPU    107.73s WALL (    6235 calls)

     Called by h_psi:
     add_vuspsi   :     11.87s CPU     11.94s WALL (    6469 calls)

     General routines
     calbec       :     22.22s CPU     22.35s WALL (    8581 calls)
     fft          :     10.69s CPU     10.82s WALL (    5943 calls)
     ffts         :      0.21s CPU      0.22s WALL (     665 calls)
     fftw         :    146.80s CPU    148.58s WALL (  756406 calls)
     interpolate  :      1.09s CPU      1.12s WALL (     665 calls)
 
     Parallel routines
     fft_scatter  :     72.09s CPU     71.84s WALL (  763014 calls)
 
     PWSCF        :  9m33.56s CPU     9m38.69s WALL

 
   This run was terminated on:   6:34:28  18Feb2017            

=------------------------------------------------------------------------------=
   JOB DONE.
=------------------------------------------------------------------------------=
Job  /afs/slac/g/suncat/bin/suncat-tsmpirun -x LD_LIBRARY_PATH -wdir /scratch/qe259882_jwnQN pw.x -in pw.inp

TID   HOST_NAME   COMMAND_LINE            STATUS            TERMINATION_TIME
===== ========== ================  =======================  ===================
00000 suncat1015 pw.x -in pw.inp   Done                     02/18/2017 06:34:28
00001 suncat1015 pw.x -in pw.inp   Done                     02/18/2017 06:34:28
00002 suncat1015 pw.x -in pw.inp   Done                     02/18/2017 06:34:28
00003 suncat1015 pw.x -in pw.inp   Done                     02/18/2017 06:34:28
00004 suncat1015 pw.x -in pw.inp   Done                     02/18/2017 06:34:28
00005 suncat1015 pw.x -in pw.inp   Done                     02/18/2017 06:34:28
00006 suncat1015 pw.x -in pw.inp   Done                     02/18/2017 06:34:28
00007 suncat1015 pw.x -in pw.inp   Done                     02/18/2017 06:34:28
00008 suncat1015 pw.x -in pw.inp   Done                     02/18/2017 06:34:28
00009 suncat1015 pw.x -in pw.inp   Done                     02/18/2017 06:34:28
00010 suncat1015 pw.x -in pw.inp   Done                     02/18/2017 06:34:28
00011 suncat1015 pw.x -in pw.inp   Done                     02/18/2017 06:34:28
