  python dir          : /nfs/slac/g/suncatfs/aidank/software/ase-espresso/lib/python2.7/site-packages/espresso
  espresso dir        : /nfs/slac/g/suncatfs/aidank/software/espresso-qeforge/bin
  pseudo dir          : /nfs/slac/g/suncatfs/aidank/scripts/gbrv/
  ase-espresso py git : c91b4c2-git



     Program PWSCF v.5.0.2 (svn rev. 10453) starts on 18Feb2017 at  6: 2:22 

     This program is part of the open-source Quantum ESPRESSO suite
     for quantum simulation of materials; please cite
         "P. Giannozzi et al., J. Phys.:Condens. Matter 21 395502 (2009);
          URL http://www.quantum-espresso.org", 
     in publications or presentations arising from this work. More details at
     http://www.quantum-espresso.org/quote

     Parallel version (MPI), running on    12 processors
     R & G space division:  proc/nbgrp/npool/nimage =      12
     Reading input from pw.inp
     Message from routine read_cards :
     DEPRECATED: no units specified in CELL_PARAMETERS card

     Current dimensions of program PWSCF are:
     Max number of different atomic species (ntypx) = 10
     Max number of k-points (npk) =  40000
     Max angular momentum in pseudopotentials (lmaxx) =  3
     Presently no symmetry can be used with electric field


     IMPORTANT: XC functional enforced from input :
     Exchange-correlation      = PBE ( 1  4  3  4 0)
     Any further DFT definition will be discarded
     Please, verify this is what you really want


     Subspace diagonalization in iterative solution of the eigenvalue problem:
     a serial algorithm will be used

 
     Parallelization info
     --------------------
     sticks:   dense  smooth     PW     G-vecs:    dense   smooth      PW
     Min          81      39     12                 9513     3338     586
     Max          82      40     16                 9522     3378     597
     Sum         981     479    161               114205    40347    7083
 


     bravais-lattice index     =            0
     lattice parameter (alat)  =       1.8897  a.u.
     unit-cell volume          =    1872.8848 (a.u.)^3
     number of atoms/cell      =            8
     number of atomic types    =            3
     number of electrons       =        84.00
     number of Kohn-Sham states=           72
     kinetic-energy cutoff     =      29.3995  Ry
     charge density cutoff     =     235.1957  Ry
     convergence threshold     =      1.0E-06
     mixing beta               =       0.1000
     number of iterations used =           15  plain     mixing
     Exchange-correlation      = PBE ( 1  4  3  4 0)
     nstep                     =           50


     celldm(1)=   1.889726  celldm(2)=   0.000000  celldm(3)=   0.000000
     celldm(4)=   0.000000  celldm(5)=   0.000000  celldm(6)=   0.000000

     crystal axes: (cart. coord. in units of alat)
               a(1) = (   5.784133   0.000000   0.000000 )  
               a(2) = (   1.446033   2.504603   0.000000 )  
               a(3) = (   0.000000   0.000000  19.157428 )  

     reciprocal axes: (cart. coord. in units 2 pi/alat)
               b(1) = (  0.172887 -0.099816  0.000000 )  
               b(2) = (  0.000000  0.399265  0.000000 )  
               b(3) = (  0.000000  0.000000  0.052199 )  


     PseudoPot. # 1 for Ag read from file:
     /nfs/slac/g/suncatfs/aidank/scripts/gbrv/Ag.UPF
     MD5 check sum: d66d668201baa78d5eb5b04ef7011058
     Pseudo is Ultrasoft + core correction, Zval = 19.0
     Generated by new atomic code, or converted to UPF format
     Using radial grid of  887 points,  6 beta functions with: 
                l(1) =   0
                l(2) =   0
                l(3) =   1
                l(4) =   1
                l(5) =   2
                l(6) =   2
     Q(r) pseudized with  6 coefficients,  rinner =    1.300   1.300   1.300
                                                       1.300   1.300

     PseudoPot. # 2 for N  read from file:
     /nfs/slac/g/suncatfs/aidank/scripts/gbrv/N.UPF
     MD5 check sum: 95339753478d7afb44899504a8723017
     Pseudo is Ultrasoft + core correction, Zval =  5.0
     Generated by new atomic code, or converted to UPF format
     Using radial grid of  729 points,  4 beta functions with: 
                l(1) =   0
                l(2) =   0
                l(3) =   1
                l(4) =   1
     Q(r) pseudized with  8 coefficients,  rinner =    0.900   0.900   0.900


     PseudoPot. # 3 for H  read from file:
     /nfs/slac/g/suncatfs/aidank/scripts/gbrv/H.UPF
     MD5 check sum: 761ae9a214b05c3daf00ab9f6b793d6f
     Pseudo is Ultrasoft, Zval =  1.0
     Generated by new atomic code, or converted to UPF format
     Using radial grid of  615 points,  2 beta functions with: 
                l(1) =   0
                l(2) =   0
     Q(r) pseudized with  8 coefficients,  rinner =    0.700

     atomic species   valence    mass     pseudopotential
        Ag1           19.00   107.86800     Ag( 1.00)
        N1             5.00    14.00670     N ( 1.00)
        H1             1.00     1.00794     H ( 1.00)

     No symmetry found



   Cartesian axes

     site n.     atom                  positions (alat units)
         1           Ag1 tau(   1) = (   5.4594866   0.7084522   7.1205000  )
         2           Ag1 tau(   2) = (   2.5674199   0.7084522   7.1205000  )
         3           Ag1 tau(   3) = (   1.1213865   1.5433200   9.4818626  )
         4           Ag1 tau(   4) = (   4.0134533   1.5433200   9.4818626  )
         5           N1  tau(   5) = (   4.5271117   1.6294047  11.4613322  )
         6           H1  tau(   6) = (   4.3794883   1.9132486  12.4053473  )
         7           H1  tau(   7) = (   4.2442114   0.6619870  11.4735979  )
         8           H1  tau(   8) = (   2.9808283   2.1915098  11.0398213  )

     number of k points=     6  Fermi-Dirac smearing, width (Ry)=  0.0073
                       cart. coord. in units 2pi/alat
        k(    1) = (   0.0000000   0.0000000   0.0000000), wk =   0.2500000
        k(    2) = (   0.0000000   0.0998162   0.0000000), wk =   0.5000000
        k(    3) = (   0.0000000  -0.1996324   0.0000000), wk =   0.2500000
        k(    4) = (  -0.0864434   0.0499081   0.0000000), wk =   0.2500000
        k(    5) = (  -0.0864434   0.1497243   0.0000000), wk =   0.5000000
        k(    6) = (  -0.0864434  -0.1497243   0.0000000), wk =   0.2500000

     Dense  grid:   114205 G-vectors     FFT dimensions: (  54,  27, 180)

     Smooth grid:    40347 G-vectors     FFT dimensions: (  40,  20, 125)

     Largest allocated arrays     est. size (Mb)     dimensions
        Kohn-Sham Wavefunctions         0.49 Mb     (     450,   72)
        NL pseudopotentials             0.59 Mb     (     450,   86)
        Each V/rho on FFT grid          0.33 Mb     (   21870)
        Each G-vector array             0.07 Mb     (    9513)
        G-vector shells                 0.03 Mb     (    3999)
     Largest temporary arrays     est. size (Mb)     dimensions
        Auxiliary wavefunctions         1.98 Mb     (     450,  288)
        Each subspace H/S matrix        1.27 Mb     (     288,  288)
        Each <psi_i|beta_j> matrix      0.09 Mb     (      86,   72)
        Arrays for rho mixing           5.01 Mb     (   21870,   15)

     Initial potential from superposition of free atoms
     Check: negative starting charge=   -0.002407

     starting charge   81.99978, renormalised to   84.00000

     negative rho (up, down):  2.465E-03 0.000E+00
 
     Adding external electric field

     Computed dipole along edir(3) : 
        Dipole               -1.1898 Ry au,         -3.0241 Debye
        Dipole field         -0.0080 Ry au
 
        Potential amp.        0.5636 Ry
        Total length         35.2972 bohr
 
     Starting wfc are   59 randomized atomic wfcs +   13 random wfc

     total cpu time spent up to now is        1.1 secs

     per-process dynamical memory:    18.4 Mb

     Self-consistent Calculation

     iteration #  1     ecut=    29.40 Ry     beta=0.10
     Davidson diagonalization with overlap
     ethr =  1.00E-02,  avg # of iterations =  7.0

     negative rho (up, down):  1.093E-03 0.000E+00
 
     Adding external electric field

     Computed dipole along edir(3) : 
        Dipole                1.3677 Ry au,          3.4763 Debye
        Dipole field          0.0092 Ry au
 
        Potential amp.       -0.6478 Ry
        Total length         35.2972 bohr
 

     total cpu time spent up to now is        5.0 secs

     total energy              =   -1203.79262611 Ry
     Harris-Foulkes estimate   =   -1207.56041114 Ry
     estimated scf accuracy    <      21.49425229 Ry

     iteration #  2     ecut=    29.40 Ry     beta=0.10
     Davidson diagonalization with overlap
     ethr =  1.00E-02,  avg # of iterations =  3.3

     negative rho (up, down):  7.628E-04 0.000E+00
 
     Adding external electric field

     Computed dipole along edir(3) : 
        Dipole                0.0059 Ry au,          0.0149 Debye
        Dipole field          0.0000 Ry au
 
        Potential amp.       -0.0028 Ry
        Total length         35.2972 bohr
 

     total cpu time spent up to now is        6.8 secs

     total energy              =   -1205.02089277 Ry
     Harris-Foulkes estimate   =   -1207.26882812 Ry
     estimated scf accuracy    <      24.84361692 Ry

     iteration #  3     ecut=    29.40 Ry     beta=0.10
     Davidson diagonalization with overlap
     ethr =  1.00E-02,  avg # of iterations =  2.5

     negative rho (up, down):  8.107E-04 0.000E+00
 
     Adding external electric field

     Computed dipole along edir(3) : 
        Dipole                0.0455 Ry au,          0.1157 Debye
        Dipole field          0.0003 Ry au
 
        Potential amp.       -0.0216 Ry
        Total length         35.2972 bohr
 

     total cpu time spent up to now is        8.4 secs

     total energy              =   -1205.91575206 Ry
     Harris-Foulkes estimate   =   -1206.13128643 Ry
     estimated scf accuracy    <       1.17846002 Ry

     iteration #  4     ecut=    29.40 Ry     beta=0.10
     Davidson diagonalization with overlap
     ethr =  1.40E-03,  avg # of iterations =  2.5

     negative rho (up, down):  9.329E-04 0.000E+00
 
     Adding external electric field

     Computed dipole along edir(3) : 
        Dipole                0.2414 Ry au,          0.6136 Debye
        Dipole field          0.0016 Ry au
 
        Potential amp.       -0.1143 Ry
        Total length         35.2972 bohr
 

     total cpu time spent up to now is        9.9 secs

     total energy              =   -1205.72277378 Ry
     Harris-Foulkes estimate   =   -1205.94501053 Ry
     estimated scf accuracy    <       0.51409694 Ry

     iteration #  5     ecut=    29.40 Ry     beta=0.10
     Davidson diagonalization with overlap
     ethr =  6.12E-04,  avg # of iterations =  4.2

     negative rho (up, down):  9.867E-04 0.000E+00
 
     Adding external electric field

     Computed dipole along edir(3) : 
        Dipole                0.2258 Ry au,          0.5739 Debye
        Dipole field          0.0015 Ry au
 
        Potential amp.       -0.1070 Ry
        Total length         35.2972 bohr
 

     total cpu time spent up to now is       11.9 secs

     total energy              =   -1205.80882798 Ry
     Harris-Foulkes estimate   =   -1205.81212967 Ry
     estimated scf accuracy    <       0.03121563 Ry

     iteration #  6     ecut=    29.40 Ry     beta=0.10
     Davidson diagonalization with overlap
     ethr =  3.72E-05,  avg # of iterations =  4.7

     negative rho (up, down):  1.403E-03 0.000E+00
 
     Adding external electric field

     Computed dipole along edir(3) : 
        Dipole                0.2515 Ry au,          0.6393 Debye
        Dipole field          0.0017 Ry au
 
        Potential amp.       -0.1191 Ry
        Total length         35.2972 bohr
 

     total cpu time spent up to now is       13.8 secs

     total energy              =   -1205.80221318 Ry
     Harris-Foulkes estimate   =   -1205.80925808 Ry
     estimated scf accuracy    <       0.02136922 Ry

     iteration #  7     ecut=    29.40 Ry     beta=0.10
     Davidson diagonalization with overlap
     ethr =  2.54E-05,  avg # of iterations =  5.7

     negative rho (up, down):  1.434E-03 0.000E+00
 
     Adding external electric field

     Computed dipole along edir(3) : 
        Dipole                0.2478 Ry au,          0.6300 Debye
        Dipole field          0.0017 Ry au
 
        Potential amp.       -0.1174 Ry
        Total length         35.2972 bohr
 

     total cpu time spent up to now is       16.0 secs

     total energy              =   -1205.80386827 Ry
     Harris-Foulkes estimate   =   -1205.80461920 Ry
     estimated scf accuracy    <       0.00518835 Ry

     iteration #  8     ecut=    29.40 Ry     beta=0.10
     Davidson diagonalization with overlap
     ethr =  6.18E-06,  avg # of iterations =  1.0

     negative rho (up, down):  1.722E-03 0.000E+00
 
     Adding external electric field

     Computed dipole along edir(3) : 
        Dipole                0.2039 Ry au,          0.5184 Debye
        Dipole field          0.0014 Ry au
 
        Potential amp.       -0.0966 Ry
        Total length         35.2972 bohr
 

     total cpu time spent up to now is       17.3 secs

     total energy              =   -1205.80353629 Ry
     Harris-Foulkes estimate   =   -1205.80421041 Ry
     estimated scf accuracy    <       0.00244230 Ry

     iteration #  9     ecut=    29.40 Ry     beta=0.10
     Davidson diagonalization with overlap
     ethr =  2.91E-06,  avg # of iterations =  3.5

     negative rho (up, down):  1.920E-03 0.000E+00
 
     Adding external electric field

     Computed dipole along edir(3) : 
        Dipole                0.1872 Ry au,          0.4758 Debye
        Dipole field          0.0013 Ry au
 
        Potential amp.       -0.0887 Ry
        Total length         35.2972 bohr
 

     total cpu time spent up to now is       19.1 secs

     total energy              =   -1205.80377986 Ry
     Harris-Foulkes estimate   =   -1205.80388765 Ry
     estimated scf accuracy    <       0.00040211 Ry

     iteration # 10     ecut=    29.40 Ry     beta=0.10
     Davidson diagonalization with overlap
     ethr =  4.79E-07,  avg # of iterations =  3.3

     negative rho (up, down):  2.055E-03 0.000E+00
 
     Adding external electric field

     Computed dipole along edir(3) : 
        Dipole                0.1904 Ry au,          0.4839 Debye
        Dipole field          0.0013 Ry au
 
        Potential amp.       -0.0902 Ry
        Total length         35.2972 bohr
 

     total cpu time spent up to now is       20.8 secs

     total energy              =   -1205.80380149 Ry
     Harris-Foulkes estimate   =   -1205.80381175 Ry
     estimated scf accuracy    <       0.00020128 Ry

     iteration # 11     ecut=    29.40 Ry     beta=0.10
     Davidson diagonalization with overlap
     ethr =  2.40E-07,  avg # of iterations =  1.5

     negative rho (up, down):  2.193E-03 0.000E+00
 
     Adding external electric field

     Computed dipole along edir(3) : 
        Dipole                0.1881 Ry au,          0.4782 Debye
        Dipole field          0.0013 Ry au
 
        Potential amp.       -0.0891 Ry
        Total length         35.2972 bohr
 

     total cpu time spent up to now is       22.1 secs

     total energy              =   -1205.80381976 Ry
     Harris-Foulkes estimate   =   -1205.80382337 Ry
     estimated scf accuracy    <       0.00002175 Ry

     iteration # 12     ecut=    29.40 Ry     beta=0.10
     Davidson diagonalization with overlap
     ethr =  2.59E-08,  avg # of iterations =  2.0

     negative rho (up, down):  2.286E-03 0.000E+00
 
     Adding external electric field

     Computed dipole along edir(3) : 
        Dipole                0.1863 Ry au,          0.4735 Debye
        Dipole field          0.0012 Ry au
 
        Potential amp.       -0.0882 Ry
        Total length         35.2972 bohr
 

     total cpu time spent up to now is       23.7 secs

     total energy              =   -1205.80382372 Ry
     Harris-Foulkes estimate   =   -1205.80382638 Ry
     estimated scf accuracy    <       0.00001254 Ry

     iteration # 13     ecut=    29.40 Ry     beta=0.10
     Davidson diagonalization with overlap
     ethr =  1.49E-08,  avg # of iterations =  1.0

     negative rho (up, down):  2.315E-03 0.000E+00
 
     Adding external electric field

     Computed dipole along edir(3) : 
        Dipole                0.1855 Ry au,          0.4715 Debye
        Dipole field          0.0012 Ry au
 
        Potential amp.       -0.0879 Ry
        Total length         35.2972 bohr
 

     total cpu time spent up to now is       25.0 secs

     total energy              =   -1205.80382523 Ry
     Harris-Foulkes estimate   =   -1205.80382602 Ry
     estimated scf accuracy    <       0.00000243 Ry

     iteration # 14     ecut=    29.40 Ry     beta=0.10
     Davidson diagonalization with overlap
     ethr =  2.90E-09,  avg # of iterations =  1.7

     negative rho (up, down):  2.346E-03 0.000E+00
 
     Adding external electric field

     Computed dipole along edir(3) : 
        Dipole                0.1865 Ry au,          0.4742 Debye
        Dipole field          0.0013 Ry au
 
        Potential amp.       -0.0884 Ry
        Total length         35.2972 bohr
 

     total cpu time spent up to now is       26.3 secs

     End of self-consistent calculation

          k = 0.0000 0.0000 0.0000 (  5071 PWs)   bands (ev):

   -90.4600 -90.1939 -90.1271 -90.0926 -53.9640 -53.9343 -53.8825 -53.7189
   -53.6346 -53.6081 -53.5849 -53.5772 -53.5634 -53.5490 -53.5069 -53.5028
   -15.5925  -6.3288  -5.2705  -4.6224  -4.4686  -4.3436  -4.1084  -3.5168
    -3.1296  -2.9620  -2.9296  -2.8407  -2.8171  -2.7258  -2.5917  -2.0986
    -1.9394  -1.7928  -1.7216  -1.5046  -1.4633  -1.4100  -1.1883  -1.0802
    -0.3427   0.7058   1.5220   2.6853   3.4944   4.5240   5.3272   5.8066
     6.4848   6.6550   7.5579   8.0606   9.0625   9.3386   9.4732   9.8757
    10.4676  11.0831  11.1047  11.3883  11.6134  12.3000  12.6383  12.8168
    13.2066  13.8513  13.9489  14.5215  15.0657  15.1420  15.8328  16.5718

          k = 0.0000 0.0998 0.0000 (  5031 PWs)   bands (ev):

   -90.4571 -90.1907 -90.1245 -90.0899 -53.9599 -53.9272 -53.9211 -53.7007
   -53.6729 -53.6092 -53.6054 -53.5964 -53.5749 -53.5555 -53.5337 -53.5043
   -15.1857  -6.3815  -4.8944  -4.2269  -4.0608  -3.7621  -3.6572  -3.3942
    -3.3339  -3.2276  -2.9258  -2.8017  -2.6712  -2.4931  -2.4550  -2.3428
    -2.2465  -2.1443  -1.9889  -1.8708  -1.7234  -1.5051  -1.3638  -0.8681
    -0.7422   1.5802   2.1551   3.3150   4.9788   5.9664   6.5502   6.9255
     7.9073   8.1797   8.4155   8.7345   9.0833   9.3958   9.6741  10.6661
    10.6791  10.8887  11.1392  11.4789  12.0566  12.3482  12.4486  13.2657
    13.4557  13.6513  14.0716  14.4093  14.8466  15.0659  15.3870  15.5374

          k = 0.0000-0.1996 0.0000 (  5048 PWs)   bands (ev):

   -90.4542 -90.1877 -90.1217 -90.0872 -53.9704 -53.9524 -53.9220 -53.7230
   -53.7048 -53.6260 -53.6016 -53.5994 -53.5882 -53.5693 -53.5234 -53.5153
   -14.7003  -6.9940  -5.0931  -4.5449  -4.3878  -4.3285  -4.0782  -3.8920
    -3.7347  -3.3613  -2.9089  -2.6994  -2.4988  -2.1621  -1.8568  -1.6487
    -1.5603  -1.5366  -1.2819  -1.1385  -1.0766  -1.0638  -0.8710  -0.5125
     2.2172   2.5219   3.0995   3.3795   4.8618   5.9147   6.3759   6.6045
     8.0435   8.4372   8.9428   9.6855  10.0679  10.3987  10.7066  10.9119
    11.0523  11.0953  11.2090  11.2452  11.5011  12.2548  12.3504  12.4998
    12.5731  12.7142  13.0639  13.2241  13.5815  13.8287  14.2409  14.4550

          k =-0.0864 0.0499 0.0000 (  5024 PWs)   bands (ev):

   -90.4599 -90.1934 -90.1276 -90.0926 -53.9632 -53.9249 -53.8812 -53.6855
   -53.6304 -53.6206 -53.6075 -53.5850 -53.5668 -53.5520 -53.5065 -53.5012
   -15.5817  -6.2407  -5.1200  -4.1631  -3.9557  -3.8265  -3.7116  -3.3716
    -3.2212  -3.1547  -2.9511  -2.8723  -2.5900  -2.4236  -2.3810  -2.3183
    -2.2203  -2.1581  -2.0911  -1.9965  -1.8975  -1.7277  -1.4626  -1.3703
    -1.0514  -0.2840   1.4668   2.4288   3.6794   5.2636   5.8801   6.1789
     6.6575   6.8257   7.1313   7.9073   8.2919   8.5264   9.1361   9.7007
    10.5086  10.8968  11.2144  12.0405  12.2550  12.6620  13.8178  14.0326
    14.5300  14.7928  15.5538  15.8665  16.0830  16.5085  16.5530  17.1279

          k =-0.0864 0.1497 0.0000 (  5031 PWs)   bands (ev):

   -90.4571 -90.1907 -90.1245 -90.0899 -53.9598 -53.9260 -53.9224 -53.6994
   -53.6735 -53.6143 -53.6046 -53.5930 -53.5743 -53.5556 -53.5337 -53.5044
   -15.1857  -6.3812  -4.8852  -4.2315  -3.9816  -3.7235  -3.6697  -3.5118
    -3.3341  -3.2133  -2.9283  -2.8240  -2.6546  -2.5192  -2.4202  -2.3313
    -2.2999  -2.1387  -2.0437  -1.8787  -1.7899  -1.4795  -1.3970  -0.8799
    -0.5673   1.7369   2.0813   3.4082   4.8834   5.9238   6.5120   6.8771
     7.8065   8.0990   8.3764   8.7337   9.0290   9.4295   9.6317  10.5706
    10.6938  11.0156  11.1980  11.6500  12.0501  12.2980  12.5184  13.4022
    13.5772  13.7381  14.1444  14.4617  14.8374  15.1573  15.4093  15.4930

          k =-0.0864-0.1497 0.0000 (  5038 PWs)   bands (ev):

   -90.4542 -90.1878 -90.1217 -90.0872 -53.9683 -53.9517 -53.9169 -53.7120
   -53.6782 -53.6520 -53.6124 -53.6018 -53.5949 -53.5716 -53.5232 -53.5144
   -14.7068  -6.9970  -5.0293  -4.0423  -3.7460  -3.6708  -3.5169  -3.4563
    -3.4506  -3.2794  -2.9289  -2.9107  -2.7342  -2.6759  -2.5257  -2.4656
    -2.2977  -2.0904  -1.7977  -1.6575  -1.4206  -1.2326  -0.7024  -0.4746
     1.7358   2.0344   3.4210   4.4108   5.5837   7.6489   8.1365   8.2236
     8.3694   8.4760   8.8682   9.1595   9.5444   9.6181   9.8350  10.0054
    10.5637  10.8367  11.0228  11.4442  11.8474  11.9551  12.3500  12.4708
    12.9412  13.5903  13.6907  13.7433  14.2406  14.5383  14.7744  14.8358

     the Fermi energy is     1.9797 ev

!    total energy              =   -1205.80383202 Ry
     Harris-Foulkes estimate   =   -1205.80382292 Ry
     estimated scf accuracy    <       0.00000030 Ry

     The total energy is the sum of the following terms:

     one-electron contribution =   -6040.66916143 Ry
     hartree contribution      =    3018.38398072 Ry
     xc contribution           =    -123.31235923 Ry
     ewald contribution        =    1939.80111008 Ry
     electric field correction =       0.00023349 Ry
     smearing contrib. (-TS)   =      -0.00763565 Ry

     convergence has been achieved in  14 iterations

     Forces acting on atoms (Ry/au):


     negative rho (up, down):  2.346E-03 0.000E+00
     atom    1 type  1   force =    -0.00227563    0.00215357   -0.00991965
     atom    2 type  1   force =     0.00305844   -0.00162907   -0.01277137
     atom    3 type  1   force =     0.00573662   -0.00832433    0.02572376
     atom    4 type  1   force =    -0.02696484    0.02077303   -0.08973279
     atom    5 type  2   force =    -0.00316345    0.01271798    0.02531097
     atom    6 type  3   force =    -0.00907749    0.03754733    0.05642216
     atom    7 type  3   force =     0.00144844   -0.05523550    0.02169564
     atom    8 type  3   force =     0.03123791   -0.00800301   -0.01672872

     Total force =     0.143490     Total SCF correction =     0.002957
 !ASE
     Check: negative starting charge=   -0.002407
     NEW-OLD atomic charge density approx. for the potential
     Check: negative starting charge=   -0.002369

     negative rho (up, down):  2.314E-03 0.000E+00
 
     Adding external electric field

     Computed dipole along edir(3) : 
        Dipole                0.1865 Ry au,          0.4742 Debye
        Dipole field          0.0013 Ry au
 
        Potential amp.       -0.0884 Ry
        Total length         35.2972 bohr
 

     total cpu time spent up to now is       27.5 secs

     per-process dynamical memory:    31.3 Mb

     Self-consistent Calculation

     iteration #  1     ecut=    29.40 Ry     beta=0.10
     Davidson diagonalization with overlap
     ethr =  2.90E-09,  avg # of iterations =  6.2

     negative rho (up, down):  2.297E-03 0.000E+00
 
     Adding external electric field

     Computed dipole along edir(3) : 
        Dipole                0.2474 Ry au,          0.6288 Debye
        Dipole field          0.0017 Ry au
 
        Potential amp.       -0.1172 Ry
        Total length         35.2972 bohr
 

     total cpu time spent up to now is       30.9 secs

     total energy              =   -1205.80314740 Ry
     Harris-Foulkes estimate   =   -1205.81309689 Ry
     estimated scf accuracy    <       0.06476720 Ry

     iteration #  2     ecut=    29.40 Ry     beta=0.10
     Davidson diagonalization with overlap
     ethr =  7.71E-05,  avg # of iterations =  2.0

     negative rho (up, down):  2.287E-03 0.000E+00
 
     Adding external electric field

     Computed dipole along edir(3) : 
        Dipole                0.1779 Ry au,          0.4522 Debye
        Dipole field          0.0012 Ry au
 
        Potential amp.       -0.0843 Ry
        Total length         35.2972 bohr
 

     total cpu time spent up to now is       32.4 secs

     total energy              =   -1205.80411436 Ry
     Harris-Foulkes estimate   =   -1205.80799291 Ry
     estimated scf accuracy    <       0.03400705 Ry

     iteration #  3     ecut=    29.40 Ry     beta=0.10
     Davidson diagonalization with overlap
     ethr =  4.05E-05,  avg # of iterations =  2.8

     negative rho (up, down):  2.287E-03 0.000E+00
 
     Adding external electric field

     Computed dipole along edir(3) : 
        Dipole                0.1464 Ry au,          0.3720 Debye
        Dipole field          0.0010 Ry au
 
        Potential amp.       -0.0693 Ry
        Total length         35.2972 bohr
 

     total cpu time spent up to now is       34.0 secs

     total energy              =   -1205.80187535 Ry
     Harris-Foulkes estimate   =   -1205.80551367 Ry
     estimated scf accuracy    <       0.01338544 Ry

     iteration #  4     ecut=    29.40 Ry     beta=0.10
     Davidson diagonalization with overlap
     ethr =  1.59E-05,  avg # of iterations =  3.8

     negative rho (up, down):  2.323E-03 0.000E+00
 
     Adding external electric field

     Computed dipole along edir(3) : 
        Dipole                0.1447 Ry au,          0.3677 Debye
        Dipole field          0.0010 Ry au
 
        Potential amp.       -0.0685 Ry
        Total length         35.2972 bohr
 

     total cpu time spent up to now is       35.8 secs

     total energy              =   -1205.80265467 Ry
     Harris-Foulkes estimate   =   -1205.80305840 Ry
     estimated scf accuracy    <       0.00270104 Ry

     iteration #  5     ecut=    29.40 Ry     beta=0.10
     Davidson diagonalization with overlap
     ethr =  3.22E-06,  avg # of iterations =  3.2

     negative rho (up, down):  2.464E-03 0.000E+00
 
     Adding external electric field

     Computed dipole along edir(3) : 
        Dipole                0.1485 Ry au,          0.3774 Debye
        Dipole field          0.0010 Ry au
 
        Potential amp.       -0.0703 Ry
        Total length         35.2972 bohr
 

     total cpu time spent up to now is       37.4 secs

     total energy              =   -1205.80264160 Ry
     Harris-Foulkes estimate   =   -1205.80278276 Ry
     estimated scf accuracy    <       0.00108750 Ry

     iteration #  6     ecut=    29.40 Ry     beta=0.10
     Davidson diagonalization with overlap
     ethr =  1.29E-06,  avg # of iterations =  3.0

     negative rho (up, down):  2.453E-03 0.000E+00
 
     Adding external electric field

     Computed dipole along edir(3) : 
        Dipole                0.1590 Ry au,          0.4041 Debye
        Dipole field          0.0011 Ry au
 
        Potential amp.       -0.0753 Ry
        Total length         35.2972 bohr
 

     total cpu time spent up to now is       39.0 secs

     total energy              =   -1205.80270920 Ry
     Harris-Foulkes estimate   =   -1205.80274664 Ry
     estimated scf accuracy    <       0.00054011 Ry

     iteration #  7     ecut=    29.40 Ry     beta=0.10
     Davidson diagonalization with overlap
     ethr =  6.43E-07,  avg # of iterations =  2.8

     negative rho (up, down):  2.466E-03 0.000E+00
 
     Adding external electric field

     Computed dipole along edir(3) : 
        Dipole                0.1668 Ry au,          0.4239 Debye
        Dipole field          0.0011 Ry au
 
        Potential amp.       -0.0790 Ry
        Total length         35.2972 bohr
 

     total cpu time spent up to now is       40.6 secs

     total energy              =   -1205.80273953 Ry
     Harris-Foulkes estimate   =   -1205.80272694 Ry
     estimated scf accuracy    <       0.00005911 Ry

     iteration #  8     ecut=    29.40 Ry     beta=0.10
     Davidson diagonalization with overlap
     ethr =  7.04E-08,  avg # of iterations =  2.5

     negative rho (up, down):  2.437E-03 0.000E+00
 
     Adding external electric field

     Computed dipole along edir(3) : 
        Dipole                0.1664 Ry au,          0.4228 Debye
        Dipole field          0.0011 Ry au
 
        Potential amp.       -0.0788 Ry
        Total length         35.2972 bohr
 

     total cpu time spent up to now is       42.2 secs

     total energy              =   -1205.80274691 Ry
     Harris-Foulkes estimate   =   -1205.80274679 Ry
     estimated scf accuracy    <       0.00000819 Ry

     iteration #  9     ecut=    29.40 Ry     beta=0.10
     Davidson diagonalization with overlap
     ethr =  9.75E-09,  avg # of iterations =  1.0

     negative rho (up, down):  2.418E-03 0.000E+00
 
     Adding external electric field

     Computed dipole along edir(3) : 
        Dipole                0.1674 Ry au,          0.4255 Debye
        Dipole field          0.0011 Ry au
 
        Potential amp.       -0.0793 Ry
        Total length         35.2972 bohr
 

     total cpu time spent up to now is       43.5 secs

     total energy              =   -1205.80274777 Ry
     Harris-Foulkes estimate   =   -1205.80274484 Ry
     estimated scf accuracy    <       0.00000432 Ry

     iteration # 10     ecut=    29.40 Ry     beta=0.10
     Davidson diagonalization with overlap
     ethr =  5.14E-09,  avg # of iterations =  2.0

     negative rho (up, down):  2.300E-03 0.000E+00
 
     Adding external electric field

     Computed dipole along edir(3) : 
        Dipole                0.1646 Ry au,          0.4184 Debye
        Dipole field          0.0011 Ry au
 
        Potential amp.       -0.0780 Ry
        Total length         35.2972 bohr
 

     total cpu time spent up to now is       44.9 secs

     End of self-consistent calculation

          k = 0.0000 0.0000 0.0000 (  5071 PWs)   bands (ev):

   -90.5225 -90.2605 -90.2006 -90.1753 -54.0223 -53.9919 -53.9437 -53.7876
   -53.7037 -53.6743 -53.6602 -53.6551 -53.6386 -53.6234 -53.5905 -53.5782
   -14.5593  -5.8547  -5.1441  -4.6374  -4.5367  -4.3978  -4.1541  -3.4837
    -3.0434  -3.0115  -2.9746  -2.9059  -2.8807  -2.7888  -2.6446  -2.1023
    -2.0127  -1.8019  -1.7620  -1.5562  -1.4949  -1.4632  -1.2625  -1.1518
     0.1215   0.5682   1.5309   2.6024   3.3469   4.5362   5.3397   5.7472
     6.4277   6.6755   7.2746   7.8365   8.0420   9.0122   9.3287   9.7279
    10.4298  11.0302  11.0837  11.3777  11.5555  12.2772  12.6104  12.8006
    13.1637  13.7476  13.9379  14.3471  14.9507  15.1158  15.7679  16.4072

          k = 0.0000 0.0998 0.0000 (  5031 PWs)   bands (ev):

   -90.5196 -90.2573 -90.1980 -90.1727 -54.0167 -53.9853 -53.9830 -53.7693
   -53.7412 -53.6843 -53.6742 -53.6706 -53.6531 -53.6362 -53.6106 -53.5795
   -14.0670  -5.6709  -4.7836  -4.1345  -4.0946  -3.8176  -3.7198  -3.4560
    -3.3856  -3.2663  -2.9975  -2.8622  -2.7334  -2.5586  -2.5120  -2.4004
    -2.2879  -2.2182  -2.0437  -1.9395  -1.7536  -1.5692  -1.4238  -0.9891
    -0.7616   1.4913   2.0251   3.3797   4.8453   5.9170   6.5445   6.8947
     7.7656   8.1233   8.3205   8.6627   9.0061   9.3609   9.6542  10.3460
    10.6103  10.7016  11.0409  11.1855  11.8087  12.0652  12.3860  13.0287
    13.3081  13.5844  13.9737  14.2640  14.7709  14.9828  15.3846  15.5267

          k = 0.0000-0.1996 0.0000 (  5048 PWs)   bands (ev):

   -90.5167 -90.2543 -90.1952 -90.1700 -54.0308 -54.0106 -53.9805 -53.7920
   -53.7747 -53.6982 -53.6773 -53.6696 -53.6683 -53.6486 -53.5951 -53.5930
   -13.4481  -6.4548  -4.8534  -4.5897  -4.4548  -4.3819  -4.1420  -3.9508
    -3.7423  -3.3913  -2.9414  -2.7744  -2.5703  -2.1997  -1.9277  -1.7166
    -1.6289  -1.6065  -1.3524  -1.2131  -1.1506  -1.1390  -0.9786  -0.5714
     2.1199   2.4354   3.0195   3.2948   4.8422   5.8183   6.3095   6.5412
     7.8598   8.3027   8.4775   9.6721  10.0384  10.3434  10.6541  10.8788
    11.0437  11.0748  11.1898  11.2669  11.4898  12.1724  12.2636  12.4512
    12.5355  12.6865  12.9838  13.1057  13.4886  13.7886  14.1905  14.3716

          k =-0.0864 0.0499 0.0000 (  5024 PWs)   bands (ev):

   -90.5224 -90.2599 -90.2012 -90.1754 -54.0178 -53.9857 -53.9424 -53.7522
   -53.6991 -53.6943 -53.6793 -53.6615 -53.6424 -53.6262 -53.5903 -53.5763
   -14.5452  -5.5987  -5.0666  -4.2141  -4.0308  -3.8951  -3.7727  -3.4343
    -3.2608  -3.1767  -3.0170  -2.7687  -2.6368  -2.4842  -2.4524  -2.3792
    -2.2945  -2.2159  -2.1557  -2.0120  -1.9541  -1.7091  -1.4470  -1.4404
    -1.1032   0.0858   1.4004   2.2059   3.7809   5.0297   5.8530   6.1691
     6.6762   6.8187   7.0836   7.7057   7.9962   8.2690   8.9032   9.0980
    10.5161  10.8696  11.1552  11.9342  12.1685  12.4903  13.7717  14.0271
    14.4811  14.6429  15.3678  15.5085  15.9543  16.3438  16.4678  16.9954

          k =-0.0864 0.1497 0.0000 (  5031 PWs)   bands (ev):

   -90.5196 -90.2573 -90.1980 -90.1727 -54.0157 -53.9895 -53.9798 -53.7678
   -53.7420 -53.6890 -53.6733 -53.6680 -53.6523 -53.6363 -53.6106 -53.5795
   -14.0671  -5.6816  -4.7876  -4.1798  -3.9770  -3.7524  -3.7102  -3.5649
    -3.3860  -3.2648  -2.9934  -2.8818  -2.7046  -2.5800  -2.4917  -2.3735
    -2.3277  -2.2069  -2.1032  -1.9507  -1.8542  -1.5487  -1.4593  -0.9330
    -0.6837   1.6422   1.9601   3.4686   4.7591   5.8796   6.5119   6.8338
     7.6384   8.0723   8.3109   8.6309   8.9370   9.3528   9.6210  10.3873
    10.6186  10.8889  11.0364  11.2921  11.8600  12.1436  12.2933  13.0965
    13.4707  13.6956  14.0862  14.3283  14.7340  15.0363  15.4002  15.4493

          k =-0.0864-0.1497 0.0000 (  5038 PWs)   bands (ev):

   -90.5167 -90.2543 -90.1952 -90.1700 -54.0284 -54.0081 -53.9770 -53.7806
   -53.7450 -53.7275 -53.6870 -53.6776 -53.6725 -53.6498 -53.5948 -53.5921
   -13.4566  -6.4607  -4.7200  -4.0726  -3.8159  -3.7391  -3.5866  -3.5304
    -3.5286  -3.3226  -3.0027  -2.9455  -2.8044  -2.7462  -2.5881  -2.5321
    -2.3551  -2.1513  -1.8637  -1.7206  -1.4907  -1.3067  -0.8629  -0.4510
     1.6765   1.9415   3.4299   4.3339   5.5137   7.5328   7.8443   8.1048
     8.2652   8.3769   8.8198   9.1197   9.5206   9.5736   9.7471   9.8164
    10.4769  10.7874  10.9631  11.3427  11.5996  11.8912  12.2309  12.2928
    12.8364  13.4932  13.5380  13.6773  14.2265  14.5041  14.7034  14.7306

     the Fermi energy is     1.8720 ev

!    total energy              =   -1205.80275385 Ry
     Harris-Foulkes estimate   =   -1205.80275452 Ry
     estimated scf accuracy    <       0.00000065 Ry

     The total energy is the sum of the following terms:

     one-electron contribution =   -6015.05733598 Ry
     hartree contribution      =    3005.44076893 Ry
     xc contribution           =    -123.11600005 Ry
     ewald contribution        =    1926.93812123 Ry
     electric field correction =       0.00018181 Ry
     smearing contrib. (-TS)   =      -0.00848979 Ry

     convergence has been achieved in  10 iterations

     Forces acting on atoms (Ry/au):


     negative rho (up, down):  2.300E-03 0.000E+00
     atom    1 type  1   force =    -0.00218683    0.00213598   -0.00972516
     atom    2 type  1   force =     0.00282261   -0.00169149   -0.01540964
     atom    3 type  1   force =     0.00528071   -0.00756977    0.02456691
     atom    4 type  1   force =    -0.01854396    0.01514960   -0.05765809
     atom    5 type  2   force =    -0.05877481   -0.08003048    0.10952886
     atom    6 type  3   force =     0.00276843   -0.02384849   -0.07341034
     atom    7 type  3   force =     0.03561331    0.10236435    0.02584696
     atom    8 type  3   force =     0.03302053   -0.00650969   -0.00373951

     Total force =     0.215225     Total SCF correction =     0.003142
 !ASE
     Check: negative starting charge=   -0.002369
     NEW-OLD atomic charge density approx. for the potential
     Check: negative starting charge=   -0.002391

     negative rho (up, down):  2.382E-03 0.000E+00
 
     Adding external electric field

     Computed dipole along edir(3) : 
        Dipole                0.1646 Ry au,          0.4184 Debye
        Dipole field          0.0011 Ry au
 
        Potential amp.       -0.0780 Ry
        Total length         35.2972 bohr
 

     total cpu time spent up to now is       46.1 secs

     per-process dynamical memory:    31.3 Mb

     Self-consistent Calculation

     iteration #  1     ecut=    29.40 Ry     beta=0.10
     Davidson diagonalization with overlap
     ethr =  5.14E-09,  avg # of iterations =  6.2

     negative rho (up, down):  2.378E-03 0.000E+00
 
     Adding external electric field

     Computed dipole along edir(3) : 
        Dipole                0.1392 Ry au,          0.3537 Debye
        Dipole field          0.0009 Ry au
 
        Potential amp.       -0.0659 Ry
        Total length         35.2972 bohr
 

     total cpu time spent up to now is       49.4 secs

     total energy              =   -1205.81411224 Ry
     Harris-Foulkes estimate   =   -1205.81626695 Ry
     estimated scf accuracy    <       0.01401156 Ry

     iteration #  2     ecut=    29.40 Ry     beta=0.10
     Davidson diagonalization with overlap
     ethr =  1.67E-05,  avg # of iterations =  2.3

     negative rho (up, down):  2.374E-03 0.000E+00
 
     Adding external electric field

     Computed dipole along edir(3) : 
        Dipole                0.1700 Ry au,          0.4322 Debye
        Dipole field          0.0011 Ry au
 
        Potential amp.       -0.0805 Ry
        Total length         35.2972 bohr
 

     total cpu time spent up to now is       50.9 secs

     total energy              =   -1205.81417393 Ry
     Harris-Foulkes estimate   =   -1205.81488208 Ry
     estimated scf accuracy    <       0.00715736 Ry

     iteration #  3     ecut=    29.40 Ry     beta=0.10
     Davidson diagonalization with overlap
     ethr =  8.52E-06,  avg # of iterations =  3.3

     negative rho (up, down):  2.370E-03 0.000E+00
 
     Adding external electric field

     Computed dipole along edir(3) : 
        Dipole                0.1849 Ry au,          0.4699 Debye
        Dipole field          0.0012 Ry au
 
        Potential amp.       -0.0876 Ry
        Total length         35.2972 bohr
 

     total cpu time spent up to now is       52.5 secs

     total energy              =   -1205.81354848 Ry
     Harris-Foulkes estimate   =   -1205.81439700 Ry
     estimated scf accuracy    <       0.00338840 Ry

     iteration #  4     ecut=    29.40 Ry     beta=0.10
     Davidson diagonalization with overlap
     ethr =  4.03E-06,  avg # of iterations =  3.5

     negative rho (up, down):  2.371E-03 0.000E+00
 
     Adding external electric field

     Computed dipole along edir(3) : 
        Dipole                0.1892 Ry au,          0.4809 Debye
        Dipole field          0.0013 Ry au
 
        Potential amp.       -0.0896 Ry
        Total length         35.2972 bohr
 

     total cpu time spent up to now is       54.3 secs

     total energy              =   -1205.81377009 Ry
     Harris-Foulkes estimate   =   -1205.81385246 Ry
     estimated scf accuracy    <       0.00072063 Ry

     iteration #  5     ecut=    29.40 Ry     beta=0.10
     Davidson diagonalization with overlap
     ethr =  8.58E-07,  avg # of iterations =  3.3

     negative rho (up, down):  2.383E-03 0.000E+00
 
     Adding external electric field

     Computed dipole along edir(3) : 
        Dipole                0.1845 Ry au,          0.4691 Debye
        Dipole field          0.0012 Ry au
 
        Potential amp.       -0.0874 Ry
        Total length         35.2972 bohr
 

     total cpu time spent up to now is       55.9 secs

     total energy              =   -1205.81378939 Ry
     Harris-Foulkes estimate   =   -1205.81381901 Ry
     estimated scf accuracy    <       0.00024313 Ry

     iteration #  6     ecut=    29.40 Ry     beta=0.10
     Davidson diagonalization with overlap
     ethr =  2.89E-07,  avg # of iterations =  2.0

     negative rho (up, down):  2.380E-03 0.000E+00
 
     Adding external electric field

     Computed dipole along edir(3) : 
        Dipole                0.1833 Ry au,          0.4659 Debye
        Dipole field          0.0012 Ry au
 
        Potential amp.       -0.0868 Ry
        Total length         35.2972 bohr
 

     total cpu time spent up to now is       57.3 secs

     total energy              =   -1205.81380329 Ry
     Harris-Foulkes estimate   =   -1205.81380920 Ry
     estimated scf accuracy    <       0.00005921 Ry

     iteration #  7     ecut=    29.40 Ry     beta=0.10
     Davidson diagonalization with overlap
     ethr =  7.05E-08,  avg # of iterations =  2.0

     negative rho (up, down):  2.375E-03 0.000E+00
 
     Adding external electric field

     Computed dipole along edir(3) : 
        Dipole                0.1791 Ry au,          0.4552 Debye
        Dipole field          0.0012 Ry au
 
        Potential amp.       -0.0848 Ry
        Total length         35.2972 bohr
 

     total cpu time spent up to now is       58.8 secs

     total energy              =   -1205.81380632 Ry
     Harris-Foulkes estimate   =   -1205.81381899 Ry
     estimated scf accuracy    <       0.00001724 Ry

     iteration #  8     ecut=    29.40 Ry     beta=0.10
     Davidson diagonalization with overlap
     ethr =  2.05E-08,  avg # of iterations =  2.3

     negative rho (up, down):  2.366E-03 0.000E+00
 
     Adding external electric field

     Computed dipole along edir(3) : 
        Dipole                0.1790 Ry au,          0.4550 Debye
        Dipole field          0.0012 Ry au
 
        Potential amp.       -0.0848 Ry
        Total length         35.2972 bohr
 

     total cpu time spent up to now is       60.3 secs

     total energy              =   -1205.81380836 Ry
     Harris-Foulkes estimate   =   -1205.81380840 Ry
     estimated scf accuracy    <       0.00000181 Ry

     iteration #  9     ecut=    29.40 Ry     beta=0.10
     Davidson diagonalization with overlap
     ethr =  2.15E-09,  avg # of iterations =  1.7

     negative rho (up, down):  2.324E-03 0.000E+00
 
     Adding external electric field

     Computed dipole along edir(3) : 
        Dipole                0.1786 Ry au,          0.4539 Debye
        Dipole field          0.0012 Ry au
 
        Potential amp.       -0.0846 Ry
        Total length         35.2972 bohr
 

     total cpu time spent up to now is       61.7 secs

     End of self-consistent calculation

          k = 0.0000 0.0000 0.0000 (  5071 PWs)   bands (ev):

   -90.4821 -90.2202 -90.1571 -90.1254 -53.9800 -53.9580 -53.9045 -53.7462
   -53.6619 -53.6340 -53.6142 -53.6093 -53.5938 -53.5787 -53.5399 -53.5330
   -15.0915  -6.0786  -5.2272  -4.6212  -4.4961  -4.3637  -4.1243  -3.4855
    -3.0578  -2.9871  -2.9580  -2.8664  -2.8444  -2.7518  -2.6113  -2.0918
    -1.9679  -1.7928  -1.7357  -1.5201  -1.4736  -1.4366  -1.2171  -1.1086
    -0.1590   0.6462   1.5306   2.6530   3.4342   4.5287   5.3353   5.7809
     6.4627   6.6724   7.4585   8.0238   8.5940   9.1732   9.3642   9.8060
    10.4449  11.0644  11.0931  11.3729  11.5790  12.2900  12.6254  12.8101
    13.1908  13.8080  13.9433  14.4390  15.0323  15.1081  15.8047  16.5053

          k = 0.0000 0.0998 0.0000 (  5031 PWs)   bands (ev):

   -90.4792 -90.2170 -90.1545 -90.1227 -53.9759 -53.9492 -53.9447 -53.7279
   -53.6999 -53.6395 -53.6322 -53.6260 -53.6066 -53.5874 -53.5645 -53.5343
   -14.6435  -6.0538  -4.8231  -4.1780  -4.0762  -3.7844  -3.6823  -3.4187
    -3.3539  -3.2419  -2.9543  -2.8249  -2.6956  -2.5185  -2.4756  -2.3649
    -2.2626  -2.1732  -2.0102  -1.8978  -1.7339  -1.5300  -1.3873  -0.9159
    -0.7503   1.5430   2.1004   3.3491   4.9261   5.9485   6.5482   6.9143
     7.8556   8.1526   8.3776   8.7091   9.0539   9.3777   9.6679  10.6333
    10.6463  10.7776  11.1164  11.3031  11.9631  12.1843  12.4172  13.1800
    13.3686  13.6063  14.0222  14.3346  14.8131  15.0259  15.3817  15.5308

          k = 0.0000-0.1996 0.0000 (  5048 PWs)   bands (ev):

   -90.4763 -90.2140 -90.1516 -90.1200 -53.9918 -53.9688 -53.9458 -53.7503
   -53.7326 -53.6550 -53.6317 -53.6265 -53.6206 -53.6014 -53.5525 -53.5459
   -14.0957  -6.7476  -4.9632  -4.5674  -4.4144  -4.3482  -4.1035  -3.9136
    -3.7353  -3.3723  -2.9215  -2.7284  -2.5269  -2.1760  -1.8845  -1.6752
    -1.5871  -1.5645  -1.3087  -1.1679  -1.1062  -1.0935  -0.9129  -0.5436
     2.1768   2.4865   3.0671   3.3449   4.8638   5.8778   6.3498   6.5844
     8.0012   8.3908   8.7048   9.6839  10.0529  10.3785  10.6816  10.9011
    11.0547  11.0826  11.2003  11.2511  11.4946  12.2291  12.3173  12.4926
    12.5499  12.7039  13.0443  13.1719  13.5383  13.8127  14.2205  14.4211

          k =-0.0864 0.0499 0.0000 (  5024 PWs)   bands (ev):

   -90.4820 -90.2197 -90.1576 -90.1255 -53.9783 -53.9492 -53.9032 -53.7118
   -53.6575 -53.6505 -53.6350 -53.6163 -53.5974 -53.5817 -53.5396 -53.5312
   -15.0791  -5.9368  -5.0879  -4.1817  -3.9847  -3.8536  -3.7345  -3.3939
    -3.2246  -3.1586  -2.9757  -2.8114  -2.6080  -2.4467  -2.4085  -2.3414
    -2.2493  -2.1783  -2.1147  -1.9927  -1.9202  -1.7152  -1.4540  -1.4003
    -1.0722  -0.1512   1.4399   2.3335   3.7337   5.1755   5.8726   6.1730
     6.6632   6.8237   7.1144   7.8992   8.2555   8.3642   9.0424   9.2707
    10.5111  10.8829  11.1865  11.9966  12.2202  12.5806  13.7986  14.0299
    14.5110  14.7295  15.5099  15.6684  16.0210  16.4314  16.5150  17.0715

          k =-0.0864 0.1497 0.0000 (  5031 PWs)   bands (ev):

   -90.4792 -90.2170 -90.1545 -90.1227 -53.9753 -53.9510 -53.9434 -53.7265
   -53.7006 -53.6445 -53.6312 -53.6231 -53.6059 -53.5875 -53.5645 -53.5344
   -14.6435  -6.0566  -4.8215  -4.1973  -3.9774  -3.7301  -3.6936  -3.5329
    -3.3536  -3.2338  -2.9538  -2.8461  -2.6734  -2.5427  -2.4480  -2.3395
    -2.3184  -2.1656  -2.0677  -1.9071  -1.8146  -1.5063  -1.4215  -0.8986
    -0.6166   1.6978   2.0302   3.4411   4.8348   5.9074   6.5140   6.8597
     7.7399   8.0854   8.3523   8.6942   8.9925   9.3993   9.6276  10.5211
    10.6701  10.9717  11.1524  11.4829  11.9709  12.2373  12.3836  13.2594
    13.5052  13.7142  14.1142  14.3936  14.7880  15.0999  15.4053  15.4657

          k =-0.0864-0.1497 0.0000 (  5038 PWs)   bands (ev):

   -90.4763 -90.2141 -90.1517 -90.1201 -53.9896 -53.9677 -53.9410 -53.7391
   -53.7046 -53.6825 -53.6425 -53.6294 -53.6274 -53.6034 -53.5521 -53.5450
   -14.1031  -6.7517  -4.8770  -4.0505  -3.7732  -3.6975  -3.5445  -3.4856
    -3.4809  -3.2975  -2.9578  -2.9214  -2.7623  -2.7038  -2.5500  -2.4917
    -2.3199  -2.1140  -1.8236  -1.6821  -1.4481  -1.2619  -0.7719  -0.4645
     1.7134   1.9962   3.4309   4.3799   5.5565   7.6366   8.0132   8.1665
     8.3243   8.4323   8.8465   9.1476   9.5341   9.6034   9.8196   9.9032
    10.5255  10.8154  10.9975  11.4008  11.7345  11.9386  12.3255  12.3666
    12.8936  13.5477  13.6387  13.6941  14.2342  14.5211  14.7651  14.7972

     the Fermi energy is     1.9348 ev

!    total energy              =   -1205.81381044 Ry
     Harris-Foulkes estimate   =   -1205.81380953 Ry
     estimated scf accuracy    <       0.00000052 Ry

     The total energy is the sum of the following terms:

     one-electron contribution =   -6029.12867147 Ry
     hartree contribution      =    3012.56830194 Ry
     xc contribution           =    -123.21858997 Ry
     ewald contribution        =    1933.97291776 Ry
     electric field correction =       0.00021396 Ry
     smearing contrib. (-TS)   =      -0.00798266 Ry

     convergence has been achieved in   9 iterations

     Forces acting on atoms (Ry/au):


     negative rho (up, down):  2.324E-03 0.000E+00
     atom    1 type  1   force =    -0.00212864    0.00203400   -0.00994607
     atom    2 type  1   force =     0.00279583   -0.00155099   -0.01408253
     atom    3 type  1   force =     0.00552727   -0.00801644    0.02543007
     atom    4 type  1   force =    -0.02293091    0.01836829   -0.07397648
     atom    5 type  2   force =    -0.03730525   -0.05192799    0.07222874
     atom    6 type  3   force =    -0.00348319    0.00669503   -0.01274759
     atom    7 type  3   force =     0.02532632    0.04196647    0.02428176
     atom    8 type  3   force =     0.03219858   -0.00756837   -0.01118789

     Total force =     0.145360     Total SCF correction =     0.002518
 !ASE
     Check: negative starting charge=   -0.002391
     NEW-OLD atomic charge density approx. for the potential
     Check: negative starting charge=   -0.002345

     negative rho (up, down):  2.293E-03 0.000E+00
 
     Adding external electric field

     Computed dipole along edir(3) : 
        Dipole                0.1786 Ry au,          0.4539 Debye
        Dipole field          0.0012 Ry au
 
        Potential amp.       -0.0846 Ry
        Total length         35.2972 bohr
 

     total cpu time spent up to now is       62.9 secs

     per-process dynamical memory:    31.3 Mb

     Self-consistent Calculation

     iteration #  1     ecut=    29.40 Ry     beta=0.10
     Davidson diagonalization with overlap
     ethr =  2.15E-09,  avg # of iterations =  9.0

     negative rho (up, down):  2.283E-03 0.000E+00
 
     Adding external electric field

     Computed dipole along edir(3) : 
        Dipole                0.0976 Ry au,          0.2480 Debye
        Dipole field          0.0007 Ry au
 
        Potential amp.       -0.0462 Ry
        Total length         35.2972 bohr
 

     total cpu time spent up to now is       66.8 secs

     total energy              =   -1205.83300858 Ry
     Harris-Foulkes estimate   =   -1205.83757888 Ry
     estimated scf accuracy    <       0.03252137 Ry

     iteration #  2     ecut=    29.40 Ry     beta=0.10
     Davidson diagonalization with overlap
     ethr =  3.87E-05,  avg # of iterations =  3.0

     negative rho (up, down):  2.278E-03 0.000E+00
 
     Adding external electric field

     Computed dipole along edir(3) : 
        Dipole                0.1288 Ry au,          0.3273 Debye
        Dipole field          0.0009 Ry au
 
        Potential amp.       -0.0610 Ry
        Total length         35.2972 bohr
 

     total cpu time spent up to now is       68.5 secs

     total energy              =   -1205.83358651 Ry
     Harris-Foulkes estimate   =   -1205.83511616 Ry
     estimated scf accuracy    <       0.01890275 Ry

     iteration #  3     ecut=    29.40 Ry     beta=0.10
     Davidson diagonalization with overlap
     ethr =  2.25E-05,  avg # of iterations =  2.2

     negative rho (up, down):  2.321E-03 0.000E+00
 
     Adding external electric field

     Computed dipole along edir(3) : 
        Dipole                0.1015 Ry au,          0.2580 Debye
        Dipole field          0.0007 Ry au
 
        Potential amp.       -0.0481 Ry
        Total length         35.2972 bohr
 

     total cpu time spent up to now is       69.9 secs

     total energy              =   -1205.83197567 Ry
     Harris-Foulkes estimate   =   -1205.83418120 Ry
     estimated scf accuracy    <       0.00978714 Ry

     iteration #  4     ecut=    29.40 Ry     beta=0.10
     Davidson diagonalization with overlap
     ethr =  1.17E-05,  avg # of iterations =  3.7

     negative rho (up, down):  2.493E-03 0.000E+00
 
     Adding external electric field

     Computed dipole along edir(3) : 
        Dipole                0.1054 Ry au,          0.2678 Debye
        Dipole field          0.0007 Ry au
 
        Potential amp.       -0.0499 Ry
        Total length         35.2972 bohr
 

     total cpu time spent up to now is       71.7 secs

     total energy              =   -1205.83214681 Ry
     Harris-Foulkes estimate   =   -1205.83258653 Ry
     estimated scf accuracy    <       0.00288419 Ry

     iteration #  5     ecut=    29.40 Ry     beta=0.10
     Davidson diagonalization with overlap
     ethr =  3.43E-06,  avg # of iterations =  2.7

     negative rho (up, down):  2.583E-03 0.000E+00
 
     Adding external electric field

     Computed dipole along edir(3) : 
        Dipole                0.1087 Ry au,          0.2762 Debye
        Dipole field          0.0007 Ry au
 
        Potential amp.       -0.0515 Ry
        Total length         35.2972 bohr
 

     total cpu time spent up to now is       73.3 secs

     total energy              =   -1205.83231897 Ry
     Harris-Foulkes estimate   =   -1205.83240083 Ry
     estimated scf accuracy    <       0.00078336 Ry

     iteration #  6     ecut=    29.40 Ry     beta=0.10
     Davidson diagonalization with overlap
     ethr =  9.33E-07,  avg # of iterations =  3.0

     negative rho (up, down):  2.635E-03 0.000E+00
 
     Adding external electric field

     Computed dipole along edir(3) : 
        Dipole                0.1307 Ry au,          0.3321 Debye
        Dipole field          0.0009 Ry au
 
        Potential amp.       -0.0619 Ry
        Total length         35.2972 bohr
 

     total cpu time spent up to now is       74.9 secs

     total energy              =   -1205.83233333 Ry
     Harris-Foulkes estimate   =   -1205.83242393 Ry
     estimated scf accuracy    <       0.00117462 Ry

     iteration #  7     ecut=    29.40 Ry     beta=0.10
     Davidson diagonalization with overlap
     ethr =  9.33E-07,  avg # of iterations =  4.5

     negative rho (up, down):  2.608E-03 0.000E+00
 
     Adding external electric field

     Computed dipole along edir(3) : 
        Dipole                0.1321 Ry au,          0.3358 Debye
        Dipole field          0.0009 Ry au
 
        Potential amp.       -0.0626 Ry
        Total length         35.2972 bohr
 

     total cpu time spent up to now is       76.7 secs

     total energy              =   -1205.83239612 Ry
     Harris-Foulkes estimate   =   -1205.83239663 Ry
     estimated scf accuracy    <       0.00004455 Ry

     iteration #  8     ecut=    29.40 Ry     beta=0.10
     Davidson diagonalization with overlap
     ethr =  5.30E-08,  avg # of iterations =  2.0

     negative rho (up, down):  2.557E-03 0.000E+00
 
     Adding external electric field

     Computed dipole along edir(3) : 
        Dipole                0.1323 Ry au,          0.3362 Debye
        Dipole field          0.0009 Ry au
 
        Potential amp.       -0.0627 Ry
        Total length         35.2972 bohr
 

     total cpu time spent up to now is       78.2 secs

     total energy              =   -1205.83240379 Ry
     Harris-Foulkes estimate   =   -1205.83240045 Ry
     estimated scf accuracy    <       0.00000698 Ry

     iteration #  9     ecut=    29.40 Ry     beta=0.10
     Davidson diagonalization with overlap
     ethr =  8.31E-09,  avg # of iterations =  1.0

     negative rho (up, down):  2.521E-03 0.000E+00
 
     Adding external electric field

     Computed dipole along edir(3) : 
        Dipole                0.1319 Ry au,          0.3354 Debye
        Dipole field          0.0009 Ry au
 
        Potential amp.       -0.0625 Ry
        Total length         35.2972 bohr
 

     total cpu time spent up to now is       79.5 secs

     total energy              =   -1205.83240574 Ry
     Harris-Foulkes estimate   =   -1205.83240447 Ry
     estimated scf accuracy    <       0.00000402 Ry

     iteration # 10     ecut=    29.40 Ry     beta=0.10
     Davidson diagonalization with overlap
     ethr =  4.79E-09,  avg # of iterations =  2.0

     negative rho (up, down):  2.321E-03 0.000E+00
 
     Adding external electric field

     Computed dipole along edir(3) : 
        Dipole                0.1288 Ry au,          0.3273 Debye
        Dipole field          0.0009 Ry au
 
        Potential amp.       -0.0610 Ry
        Total length         35.2972 bohr
 

     total cpu time spent up to now is       81.0 secs

     End of self-consistent calculation

          k = 0.0000 0.0000 0.0000 (  5071 PWs)   bands (ev):

   -90.6159 -90.3624 -90.3229 -90.2859 -54.1291 -54.0647 -54.0300 -53.8953
   -53.8099 -53.7768 -53.7724 -53.7666 -53.7606 -53.7360 -53.7056 -53.6914
   -14.8001  -6.1025  -5.4363  -4.7170  -4.6317  -4.4786  -4.2887  -3.6082
    -3.2602  -3.1358  -3.1094  -3.0123  -3.0083  -2.8625  -2.7400  -2.1851
    -2.1298  -1.9041  -1.8322  -1.7122  -1.6381  -1.5990  -1.3648  -1.2625
     0.0554   0.4991   1.4890   2.5088   3.2289   4.6907   5.3456   5.8033
     6.3564   6.6689   7.2038   7.9116   8.6891   9.2661   9.5960   9.9356
    10.6111  10.9255  11.2138  11.5350  11.7341  12.2621  12.6084  12.8522
    13.1715  13.6098  13.9127  14.5186  14.8109  15.2307  15.8079  16.3371

          k = 0.0000 0.0998 0.0000 (  5031 PWs)   bands (ev):

   -90.6130 -90.3590 -90.3206 -90.2833 -54.1217 -54.0791 -54.0500 -53.8770
   -53.8445 -53.8067 -53.7879 -53.7774 -53.7607 -53.7502 -53.7254 -53.6924
   -14.3575  -6.2603  -4.9325  -4.1906  -4.0473  -3.9037  -3.7865  -3.5757
    -3.4929  -3.2488  -3.0929  -2.9451  -2.8770  -2.6636  -2.6118  -2.5331
    -2.4260  -2.3190  -2.1306  -2.0423  -1.8976  -1.6786  -1.5436  -1.0376
    -0.6302   1.3384   1.8687   3.4012   4.7284   6.0502   6.4973   7.0013
     7.7166   8.0813   8.2265   8.6933   8.9326   9.4283   9.6919  10.4553
    10.6436  10.8023  11.0519  11.3281  11.8798  12.3180  12.4408  13.0762
    13.4123  13.6775  13.9677  14.2804  14.8255  15.0145  15.4872  15.5718

          k = 0.0000-0.1996 0.0000 (  5048 PWs)   bands (ev):

   -90.6101 -90.3559 -90.3179 -90.2806 -54.1212 -54.1181 -54.0486 -53.8983
   -53.8861 -53.8118 -53.7948 -53.7853 -53.7731 -53.7535 -53.7169 -53.7001
   -13.8160  -6.9872  -4.8926  -4.5638  -4.5012  -4.3966  -4.2241  -4.0759
    -3.8362  -3.4022  -2.9270  -2.8963  -2.6786  -2.2453  -2.0560  -1.8131
    -1.7424  -1.7151  -1.4472  -1.3214  -1.2650  -1.2459  -0.9192  -0.6813
     1.9844   2.2771   2.9113   3.1461   4.7603   5.6849   6.1889   6.4410
     8.0270   8.2032   8.6278   9.9750  10.0742  10.3889  10.6579  10.7871
    11.0165  11.0929  11.3028  11.3859  11.5191  12.0815  12.2652  12.4868
    12.5970  12.6886  13.1182  13.1654  13.4793  13.6790  14.0547  14.3890

          k =-0.0864 0.0499 0.0000 (  5024 PWs)   bands (ev):

   -90.6158 -90.3616 -90.3238 -90.2860 -54.1227 -54.0605 -54.0281 -53.8540
   -53.8151 -53.8036 -53.7854 -53.7665 -53.7658 -53.7400 -53.7054 -53.6894
   -14.7886  -5.9557  -5.1871  -4.2893  -4.1514  -4.0085  -3.9098  -3.5433
    -3.3661  -3.3094  -3.1190  -2.7829  -2.7388  -2.6264  -2.5579  -2.4907
    -2.4011  -2.3398  -2.2596  -2.1126  -2.0569  -1.9018  -1.7027  -1.5612
    -1.2159   0.0100   1.2573   1.9991   3.8201   5.1066   5.9077   6.2983
     6.6877   6.9195   7.1784   7.9387   8.2171   8.5792   9.0800   9.8580
    10.5900  10.8897  11.1895  11.8270  12.1305  12.7309  13.7121  14.0484
    14.4517  14.5148  15.3305  15.4954  15.8951  16.3031  16.3639  16.8227

          k =-0.0864 0.1497 0.0000 (  5031 PWs)   bands (ev):

   -90.6130 -90.3590 -90.3206 -90.2833 -54.1215 -54.0816 -54.0475 -53.8739
   -53.8470 -53.8116 -53.7840 -53.7770 -53.7606 -53.7502 -53.7254 -53.6924
   -14.3578  -6.2615  -4.9514  -4.2012  -3.9933  -3.8524  -3.7542  -3.6599
    -3.4634  -3.2404  -3.0979  -2.9892  -2.8260  -2.6868  -2.5981  -2.5059
    -2.4695  -2.3120  -2.1712  -2.0595  -1.9633  -1.6653  -1.5660  -1.0468
    -0.5475   1.4628   1.7933   3.4311   4.6623   6.0691   6.4856   6.9447
     7.7153   8.0591   8.2260   8.6795   8.8600   9.4098   9.7022  10.5031
    10.6725  10.8550  11.0703  11.4072  11.8397  12.0874  12.7371  13.0495
    13.5428  13.7682  14.0586  14.4509  14.8003  14.9001  15.4422  15.5493

          k =-0.0864-0.1497 0.0000 (  5038 PWs)   bands (ev):

   -90.6101 -90.3559 -90.3179 -90.2806 -54.1186 -54.1144 -54.0458 -53.8848
   -53.8515 -53.8464 -53.8074 -53.7932 -53.7777 -53.7534 -53.7166 -53.6992
   -13.8229  -6.9911  -4.5755  -4.0341  -3.9075  -3.8413  -3.6840  -3.6481
    -3.6446  -3.3008  -3.0975  -3.0020  -2.9127  -2.8425  -2.6853  -2.6405
    -2.4940  -2.2329  -1.9929  -1.8485  -1.6124  -1.4124  -0.8488  -0.5055
     1.5928   1.7814   3.3992   4.1561   5.4782   7.6620   7.7812   8.0334
     8.1128   8.5611   8.8196   9.0977   9.4945   9.5629   9.8449   9.9570
    10.4268  10.7371  10.9202  11.2634  11.5460  11.8178  12.0942  12.3782
    12.8318  13.3528  13.6718  13.8112  14.1784  14.5248  14.7183  14.8665

     the Fermi energy is     1.7204 ev

!    total energy              =   -1205.83241791 Ry
     Harris-Foulkes estimate   =   -1205.83241183 Ry
     estimated scf accuracy    <       0.00000072 Ry

     The total energy is the sum of the following terms:

     one-electron contribution =   -5978.26827477 Ry
     hartree contribution      =    2986.80417388 Ry
     xc contribution           =    -123.19118843 Ry
     ewald contribution        =    1908.83187894 Ry
     electric field correction =       0.00011123 Ry
     smearing contrib. (-TS)   =      -0.00911876 Ry

     convergence has been achieved in  10 iterations

     Forces acting on atoms (Ry/au):


     negative rho (up, down):  2.321E-03 0.000E+00
     atom    1 type  1   force =    -0.00209819    0.00185305   -0.01071290
     atom    2 type  1   force =     0.00274622   -0.00166870   -0.01562174
     atom    3 type  1   force =     0.00493979   -0.00788995    0.02333232
     atom    4 type  1   force =    -0.00569854    0.01513584   -0.02472104
     atom    5 type  2   force =    -0.01825048    0.00702302   -0.03366037
     atom    6 type  3   force =    -0.01058202   -0.01893237   -0.00235505
     atom    7 type  3   force =    -0.00235125    0.01754420    0.05007273
     atom    8 type  3   force =     0.03129447   -0.01306509    0.01366604

     Total force =     0.089608     Total SCF correction =     0.005972
 !ASE
     Check: negative starting charge=   -0.002345
     NEW-OLD atomic charge density approx. for the potential
     Check: negative starting charge=   -0.002332

     negative rho (up, down):  2.295E-03 0.000E+00
 
     Adding external electric field

     Computed dipole along edir(3) : 
        Dipole                0.1288 Ry au,          0.3273 Debye
        Dipole field          0.0009 Ry au
 
        Potential amp.       -0.0610 Ry
        Total length         35.2972 bohr
 

     total cpu time spent up to now is       82.2 secs

     per-process dynamical memory:    31.3 Mb

     Self-consistent Calculation

     iteration #  1     ecut=    29.40 Ry     beta=0.10
     Davidson diagonalization with overlap
     ethr =  4.79E-09,  avg # of iterations =  7.8

     negative rho (up, down):  2.296E-03 0.000E+00
 
     Adding external electric field

     Computed dipole along edir(3) : 
        Dipole                0.1235 Ry au,          0.3140 Debye
        Dipole field          0.0008 Ry au
 
        Potential amp.       -0.0585 Ry
        Total length         35.2972 bohr
 

     total cpu time spent up to now is       85.6 secs

     total energy              =   -1205.83998152 Ry
     Harris-Foulkes estimate   =   -1205.84015500 Ry
     estimated scf accuracy    <       0.00286164 Ry

     iteration #  2     ecut=    29.40 Ry     beta=0.10
     Davidson diagonalization with overlap
     ethr =  3.41E-06,  avg # of iterations =  1.0

     negative rho (up, down):  2.301E-03 0.000E+00
 
     Adding external electric field

     Computed dipole along edir(3) : 
        Dipole                0.1304 Ry au,          0.3315 Debye
        Dipole field          0.0009 Ry au
 
        Potential amp.       -0.0618 Ry
        Total length         35.2972 bohr
 

     total cpu time spent up to now is       86.9 secs

     total energy              =   -1205.83978289 Ry
     Harris-Foulkes estimate   =   -1205.83998736 Ry
     estimated scf accuracy    <       0.00209988 Ry

     iteration #  3     ecut=    29.40 Ry     beta=0.10
     Davidson diagonalization with overlap
     ethr =  2.50E-06,  avg # of iterations =  1.3

     negative rho (up, down):  2.332E-03 0.000E+00
 
     Adding external electric field

     Computed dipole along edir(3) : 
        Dipole                0.1242 Ry au,          0.3157 Debye
        Dipole field          0.0008 Ry au
 
        Potential amp.       -0.0588 Ry
        Total length         35.2972 bohr
 

     total cpu time spent up to now is       88.2 secs

     total energy              =   -1205.83969068 Ry
     Harris-Foulkes estimate   =   -1205.83984795 Ry
     estimated scf accuracy    <       0.00124533 Ry

     iteration #  4     ecut=    29.40 Ry     beta=0.10
     Davidson diagonalization with overlap
     ethr =  1.48E-06,  avg # of iterations =  2.3

     negative rho (up, down):  2.347E-03 0.000E+00
 
     Adding external electric field

     Computed dipole along edir(3) : 
        Dipole                0.1295 Ry au,          0.3293 Debye
        Dipole field          0.0009 Ry au
 
        Potential amp.       -0.0614 Ry
        Total length         35.2972 bohr
 

     total cpu time spent up to now is       89.7 secs

     total energy              =   -1205.83979666 Ry
     Harris-Foulkes estimate   =   -1205.83977796 Ry
     estimated scf accuracy    <       0.00019623 Ry

     iteration #  5     ecut=    29.40 Ry     beta=0.10
     Davidson diagonalization with overlap
     ethr =  2.34E-07,  avg # of iterations =  1.8

     negative rho (up, down):  2.356E-03 0.000E+00
 
     Adding external electric field

     Computed dipole along edir(3) : 
        Dipole                0.1333 Ry au,          0.3388 Debye
        Dipole field          0.0009 Ry au
 
        Potential amp.       -0.0631 Ry
        Total length         35.2972 bohr
 

     total cpu time spent up to now is       91.1 secs

     total energy              =   -1205.83981784 Ry
     Harris-Foulkes estimate   =   -1205.83980164 Ry
     estimated scf accuracy    <       0.00005397 Ry

     iteration #  6     ecut=    29.40 Ry     beta=0.10
     Davidson diagonalization with overlap
     ethr =  6.42E-08,  avg # of iterations =  2.7

     negative rho (up, down):  2.347E-03 0.000E+00
 
     Adding external electric field

     Computed dipole along edir(3) : 
        Dipole                0.1349 Ry au,          0.3430 Debye
        Dipole field          0.0009 Ry au
 
        Potential amp.       -0.0639 Ry
        Total length         35.2972 bohr
 

     total cpu time spent up to now is       92.7 secs

     total energy              =   -1205.83981842 Ry
     Harris-Foulkes estimate   =   -1205.83981823 Ry
     estimated scf accuracy    <       0.00001446 Ry

     iteration #  7     ecut=    29.40 Ry     beta=0.10
     Davidson diagonalization with overlap
     ethr =  1.72E-08,  avg # of iterations =  2.0

     negative rho (up, down):  2.344E-03 0.000E+00
 
     Adding external electric field

     Computed dipole along edir(3) : 
        Dipole                0.1342 Ry au,          0.3412 Debye
        Dipole field          0.0009 Ry au
 
        Potential amp.       -0.0636 Ry
        Total length         35.2972 bohr
 

     total cpu time spent up to now is       94.2 secs

     total energy              =   -1205.83982235 Ry
     Harris-Foulkes estimate   =   -1205.83982226 Ry
     estimated scf accuracy    <       0.00000770 Ry

     iteration #  8     ecut=    29.40 Ry     beta=0.10
     Davidson diagonalization with overlap
     ethr =  9.17E-09,  avg # of iterations =  2.0

     negative rho (up, down):  2.338E-03 0.000E+00
 
     Adding external electric field

     Computed dipole along edir(3) : 
        Dipole                0.1339 Ry au,          0.3402 Debye
        Dipole field          0.0009 Ry au
 
        Potential amp.       -0.0634 Ry
        Total length         35.2972 bohr
 

     total cpu time spent up to now is       95.6 secs

     total energy              =   -1205.83982349 Ry
     Harris-Foulkes estimate   =   -1205.83982358 Ry
     estimated scf accuracy    <       0.00000119 Ry

     iteration #  9     ecut=    29.40 Ry     beta=0.10
     Davidson diagonalization with overlap
     ethr =  1.42E-09,  avg # of iterations =  2.0

     negative rho (up, down):  2.307E-03 0.000E+00
 
     Adding external electric field

     Computed dipole along edir(3) : 
        Dipole                0.1333 Ry au,          0.3389 Debye
        Dipole field          0.0009 Ry au
 
        Potential amp.       -0.0632 Ry
        Total length         35.2972 bohr
 

     total cpu time spent up to now is       97.1 secs

     End of self-consistent calculation

          k = 0.0000 0.0000 0.0000 (  5071 PWs)   bands (ev):

   -90.6414 -90.3563 -90.3234 -90.2668 -54.1647 -54.0805 -54.0483 -53.8907
   -53.8050 -53.7728 -53.7657 -53.7596 -53.7548 -53.7285 -53.6889 -53.6772
   -14.7945  -5.8161  -5.3049  -4.7109  -4.6306  -4.4687  -4.2924  -3.6662
    -3.3037  -3.1365  -3.1065  -3.0085  -3.0055  -2.8647  -2.7392  -2.1984
    -2.1332  -1.9349  -1.8182  -1.7316  -1.6399  -1.5908  -1.3608  -1.2587
    -0.0226   0.4172   1.4997   2.5296   3.2410   4.6698   5.3494   5.8273
     6.3649   6.7017   7.1746   7.9171   8.6927   9.2976   9.7719   9.9222
    10.6180  10.9223  11.1895  11.5295  11.7246  12.2840  12.6175  12.8579
    13.1625  13.5759  13.9090  14.4308  14.8010  15.2381  15.7898  16.4405

          k = 0.0000 0.0998 0.0000 (  5031 PWs)   bands (ev):

   -90.6385 -90.3527 -90.3212 -90.2641 -54.1578 -54.0948 -54.0686 -53.8727
   -53.8382 -53.8061 -53.7857 -53.7652 -53.7510 -53.7373 -53.7167 -53.6771
   -14.3615  -5.7795  -5.0515  -4.1927  -4.0613  -3.9109  -3.7982  -3.5724
    -3.4992  -3.2428  -3.0854  -2.9472  -2.8873  -2.6617  -2.6262  -2.5564
    -2.4378  -2.3147  -2.1331  -2.0354  -1.9129  -1.6759  -1.5455  -1.0751
    -0.6263   1.3376   1.8664   3.4390   4.7282   6.0008   6.5344   6.9741
     7.7065   8.0800   8.2234   8.6869   8.8974   9.4500   9.6898  10.5151
    10.6410  10.8261  11.1384  11.3907  11.8718  12.2599  12.4059  13.1680
    13.4482  13.6782  14.0156  14.3361  14.8257  14.9877  15.4837  15.5635

          k = 0.0000-0.1996 0.0000 (  5048 PWs)   bands (ev):

   -90.6356 -90.3496 -90.3186 -90.2613 -54.1550 -54.1363 -54.0665 -53.8941
   -53.8824 -53.8077 -53.7921 -53.7723 -53.7615 -53.7406 -53.7165 -53.6809
   -13.8356  -6.6220  -4.9541  -4.5634  -4.4967  -4.3789  -4.2267  -4.0759
    -3.8712  -3.3904  -2.9998  -2.9021  -2.6723  -2.2312  -2.0560  -1.8063
    -1.7358  -1.7030  -1.4531  -1.3147  -1.2633  -1.2378  -0.9348  -0.6416
     1.9752   2.2648   2.9127   3.1420   4.7634   5.8161   6.1861   6.4406
     8.0618   8.2013   8.5041   9.9279  10.0103  10.3547  10.6638  10.7876
    11.0310  11.0947  11.2920  11.3714  11.5014  12.1559  12.3012  12.4729
    12.5848  12.6888  13.1381  13.2021  13.4809  13.6688  14.0916  14.3643

          k =-0.0864 0.0499 0.0000 (  5024 PWs)   bands (ev):

   -90.6413 -90.3553 -90.3244 -90.2668 -54.1594 -54.0765 -54.0466 -53.8468
   -53.8150 -53.7980 -53.7711 -53.7662 -53.7580 -53.7333 -53.6888 -53.6753
   -14.7835  -5.4396  -5.2943  -4.2897  -4.1527  -3.9982  -3.8999  -3.5430
    -3.3785  -3.3261  -3.1088  -2.8092  -2.7295  -2.6391  -2.5631  -2.4903
    -2.4022  -2.3477  -2.2495  -2.1163  -2.0683  -1.9608  -1.7071  -1.5521
    -1.2299  -0.1316   1.2706   1.9665   3.8654   5.0727   5.8484   6.2934
     6.7031   6.9158   7.1889   7.9618   8.2220   8.6321   9.1472  10.1126
    10.5901  10.8868  11.2367  11.8264  12.1290  12.6362  13.7002  14.0573
    14.4406  14.5903  15.3321  15.4608  15.8689  16.3001  16.3174  16.8734

          k =-0.0864 0.1497 0.0000 (  5031 PWs)   bands (ev):

   -90.6385 -90.3527 -90.3212 -90.2641 -54.1580 -54.0965 -54.0665 -53.8686
   -53.8418 -53.8114 -53.7810 -53.7652 -53.7511 -53.7372 -53.7166 -53.6772
   -14.3618  -5.7772  -5.0730  -4.2007  -3.9942  -3.8581  -3.7930  -3.6538
    -3.4645  -3.2367  -3.0936  -2.9945  -2.8321  -2.6926  -2.5947  -2.5666
    -2.4646  -2.3107  -2.1675  -2.0536  -1.9643  -1.6650  -1.5629  -1.0570
    -0.5764   1.4604   1.7926   3.4546   4.6627   6.0233   6.5380   6.9325
     7.7128   8.0601   8.2359   8.6624   8.8341   9.4417   9.6938  10.4834
    10.7199  10.8558  11.0760  11.5883  11.8344  12.1344  12.6197  13.1132
    13.6211  13.7599  14.0715  14.3925  14.7875  14.8835  15.4470  15.5169

          k =-0.0864-0.1497 0.0000 (  5038 PWs)   bands (ev):

   -90.6356 -90.3496 -90.3186 -90.2613 -54.1521 -54.1340 -54.0639 -53.8796
   -53.8511 -53.8393 -53.8068 -53.7784 -53.7645 -53.7414 -53.7164 -53.6801
   -13.8421  -6.6219  -4.6735  -4.0274  -3.9175  -3.8359  -3.6912  -3.6449
    -3.6426  -3.3021  -3.1116  -2.9970  -2.8959  -2.8328  -2.6964  -2.6383
    -2.5265  -2.2306  -1.9919  -1.8428  -1.6142  -1.4002  -0.8752  -0.4585
     1.6132   1.7655   3.4227   4.1514   5.5035   7.6482   7.8454   8.0417
     8.1172   8.5258   8.7947   9.0722   9.5273   9.6014   9.8936   9.9470
    10.4428  10.7549  10.8988  11.2553  11.5703  11.8234  12.1156  12.3515
    12.8210  13.2819  13.6779  13.7041  14.1940  14.5509  14.6754  14.8748

     the Fermi energy is     1.7185 ev

!    total energy              =   -1205.83982661 Ry
     Harris-Foulkes estimate   =   -1205.83982456 Ry
     estimated scf accuracy    <       0.00000016 Ry

     The total energy is the sum of the following terms:

     one-electron contribution =   -5969.39486816 Ry
     hartree contribution      =    2982.39239628 Ry
     xc contribution           =    -123.19161744 Ry
     ewald contribution        =    1904.36355392 Ry
     electric field correction =       0.00011928 Ry
     smearing contrib. (-TS)   =      -0.00941049 Ry

     convergence has been achieved in   9 iterations

     Forces acting on atoms (Ry/au):


     negative rho (up, down):  2.307E-03 0.000E+00
     atom    1 type  1   force =    -0.00215532    0.00173600   -0.01051187
     atom    2 type  1   force =     0.00286765   -0.00165097   -0.01564762
     atom    3 type  1   force =     0.00496593   -0.00753054    0.02309660
     atom    4 type  1   force =    -0.00313011    0.01068460   -0.01907070
     atom    5 type  2   force =    -0.01705898    0.08494051    0.03146983
     atom    6 type  3   force =     0.00255208   -0.03177028   -0.05232320
     atom    7 type  3   force =    -0.01407483   -0.04272786    0.02432059
     atom    8 type  3   force =     0.02603358   -0.01368146    0.01866637

     Total force =     0.132495     Total SCF correction =     0.002224
 !ASE
     Check: negative starting charge=   -0.002332
     NEW-OLD atomic charge density approx. for the potential
     Check: negative starting charge=   -0.002325

     negative rho (up, down):  2.313E-03 0.000E+00
 
     Adding external electric field

     Computed dipole along edir(3) : 
        Dipole                0.1333 Ry au,          0.3389 Debye
        Dipole field          0.0009 Ry au
 
        Potential amp.       -0.0632 Ry
        Total length         35.2972 bohr
 

     total cpu time spent up to now is       98.3 secs

     per-process dynamical memory:    31.3 Mb

     Self-consistent Calculation

     iteration #  1     ecut=    29.40 Ry     beta=0.10
     Davidson diagonalization with overlap
     ethr =  1.42E-09,  avg # of iterations =  6.7

     negative rho (up, down):  2.307E-03 0.000E+00
 
     Adding external electric field

     Computed dipole along edir(3) : 
        Dipole                0.0985 Ry au,          0.2503 Debye
        Dipole field          0.0007 Ry au
 
        Potential amp.       -0.0466 Ry
        Total length         35.2972 bohr
 

     total cpu time spent up to now is      101.7 secs

     total energy              =   -1205.84412686 Ry
     Harris-Foulkes estimate   =   -1205.84526336 Ry
     estimated scf accuracy    <       0.00958046 Ry

     iteration #  2     ecut=    29.40 Ry     beta=0.10
     Davidson diagonalization with overlap
     ethr =  1.14E-05,  avg # of iterations =  3.2

     negative rho (up, down):  2.303E-03 0.000E+00
 
     Adding external electric field

     Computed dipole along edir(3) : 
        Dipole                0.1155 Ry au,          0.2936 Debye
        Dipole field          0.0008 Ry au
 
        Potential amp.       -0.0547 Ry
        Total length         35.2972 bohr
 

     total cpu time spent up to now is      103.4 secs

     total energy              =   -1205.84419414 Ry
     Harris-Foulkes estimate   =   -1205.84458715 Ry
     estimated scf accuracy    <       0.00619371 Ry

     iteration #  3     ecut=    29.40 Ry     beta=0.10
     Davidson diagonalization with overlap
     ethr =  7.37E-06,  avg # of iterations =  1.8

     negative rho (up, down):  2.323E-03 0.000E+00
 
     Adding external electric field

     Computed dipole along edir(3) : 
        Dipole                0.1060 Ry au,          0.2693 Debye
        Dipole field          0.0007 Ry au
 
        Potential amp.       -0.0502 Ry
        Total length         35.2972 bohr
 

     total cpu time spent up to now is      104.8 secs

     total energy              =   -1205.84372868 Ry
     Harris-Foulkes estimate   =   -1205.84435439 Ry
     estimated scf accuracy    <       0.00373191 Ry

     iteration #  4     ecut=    29.40 Ry     beta=0.10
     Davidson diagonalization with overlap
     ethr =  4.44E-06,  avg # of iterations =  2.7

     negative rho (up, down):  2.387E-03 0.000E+00
 
     Adding external electric field

     Computed dipole along edir(3) : 
        Dipole                0.1114 Ry au,          0.2832 Debye
        Dipole field          0.0007 Ry au
 
        Potential amp.       -0.0528 Ry
        Total length         35.2972 bohr
 

     total cpu time spent up to now is      106.3 secs

     total energy              =   -1205.84390043 Ry
     Harris-Foulkes estimate   =   -1205.84392789 Ry
     estimated scf accuracy    <       0.00114191 Ry

     iteration #  5     ecut=    29.40 Ry     beta=0.10
     Davidson diagonalization with overlap
     ethr =  1.36E-06,  avg # of iterations =  2.7

     negative rho (up, down):  2.432E-03 0.000E+00
 
     Adding external electric field

     Computed dipole along edir(3) : 
        Dipole                0.1200 Ry au,          0.3050 Debye
        Dipole field          0.0008 Ry au
 
        Potential amp.       -0.0568 Ry
        Total length         35.2972 bohr
 

     total cpu time spent up to now is      107.9 secs

     total energy              =   -1205.84400928 Ry
     Harris-Foulkes estimate   =   -1205.84397588 Ry
     estimated scf accuracy    <       0.00026509 Ry

     iteration #  6     ecut=    29.40 Ry     beta=0.10
     Davidson diagonalization with overlap
     ethr =  3.16E-07,  avg # of iterations =  2.8

     negative rho (up, down):  2.422E-03 0.000E+00
 
     Adding external electric field

     Computed dipole along edir(3) : 
        Dipole                0.1283 Ry au,          0.3262 Debye
        Dipole field          0.0009 Ry au
 
        Potential amp.       -0.0608 Ry
        Total length         35.2972 bohr
 

     total cpu time spent up to now is      109.5 secs

     total energy              =   -1205.84402108 Ry
     Harris-Foulkes estimate   =   -1205.84402845 Ry
     estimated scf accuracy    <       0.00019505 Ry

     iteration #  7     ecut=    29.40 Ry     beta=0.10
     Davidson diagonalization with overlap
     ethr =  2.32E-07,  avg # of iterations =  2.5

     negative rho (up, down):  2.412E-03 0.000E+00
 
     Adding external electric field

[...]

     Computed dipole along edir(3) : 
        Dipole               -0.0426 Ry au,         -0.1084 Debye
        Dipole field         -0.0003 Ry au
 
        Potential amp.        0.0202 Ry
        Total length         35.2972 bohr
 

     total cpu time spent up to now is      656.5 secs

     End of self-consistent calculation

          k = 0.0000 0.0000 0.0000 (  5071 PWs)   bands (ev):

   -91.0589 -90.8964 -90.8579 -90.8347 -54.5734 -54.5034 -54.4642 -54.3990
   -54.3779 -54.3477 -54.3193 -54.3019 -54.2805 -54.2748 -54.2418 -54.2228
   -14.4574  -6.2508  -5.2481  -5.0509  -4.9375  -4.7517  -4.4823  -4.1050
    -3.6967  -3.6664  -3.6560  -3.5301  -3.5238  -3.3012  -3.0871  -2.6756
    -2.6488  -2.5226  -2.2711  -2.1947  -2.1459  -2.1245  -1.9201  -1.7808
    -0.2199   0.3396   1.4210   1.8034   2.4549   4.9287   5.1569   5.3668
     5.8464   6.4597   7.0875   7.9170   8.3989   9.3786   9.8417   9.9461
    10.6416  10.7649  11.3161  11.6077  11.8562  12.4731  12.5990  12.9734
    13.0117  13.2726  14.0272  14.4554  14.9987  15.2708  16.0870  16.3539

          k = 0.0000 0.0998 0.0000 (  5031 PWs)   bands (ev):

   -91.0559 -90.8936 -90.8540 -90.8330 -54.5692 -54.5230 -54.4691 -54.3902
   -54.3881 -54.3768 -54.3532 -54.3282 -54.2944 -54.2878 -54.2386 -54.2228
   -14.0582  -5.4726  -4.8152  -4.6312  -4.4789  -4.3573  -4.2058  -4.1316
    -3.8447  -3.6888  -3.5991  -3.4079  -3.2651  -3.1593  -3.1381  -3.0177
    -2.8744  -2.8569  -2.5958  -2.5243  -2.4343  -2.1775  -2.0189  -1.6654
    -0.9673   0.7690   1.1120   3.0403   3.9700   6.3324   6.5797   6.9006
     7.4664   7.8138   8.0008   8.4910   8.8724   9.6525   9.8140  10.3063
    10.4431  10.8768  11.0564  11.1688  11.3595  12.0139  12.5902  12.9808
    13.4545  13.6908  13.8998  14.2710  14.4121  14.9671  15.3435  15.6044

          k = 0.0000-0.1996 0.0000 (  5048 PWs)   bands (ev):

   -91.0530 -90.8907 -90.8508 -90.8306 -54.5894 -54.5472 -54.4701 -54.4207
   -54.4033 -54.3957 -54.3853 -54.3137 -54.3066 -54.2833 -54.2362 -54.2254
   -13.5843  -5.5602  -5.5052  -5.0371  -4.9564  -4.8315  -4.6726  -4.5966
    -3.9613  -3.8374  -3.2967  -3.2677  -2.9766  -2.6729  -2.5784  -2.2892
    -2.2723  -2.2596  -1.9445  -1.9031  -1.7982  -1.7800  -1.7771  -1.0440
     1.4487   1.6746   2.3734   2.5257   4.2521   5.3894   5.7131   5.9734
     7.6581   8.4071   8.6224   9.3811   9.7037  10.3746  10.6733  10.9124
    11.2987  11.3220  11.4455  11.5414  11.8251  12.1430  12.3196  12.3854
    12.6522  12.6853  12.9503  13.0007  13.1800  13.5113  13.7389  14.2306

          k =-0.0864 0.0499 0.0000 (  5024 PWs)   bands (ev):

   -91.0587 -90.8966 -90.8565 -90.8362 -54.5567 -54.4972 -54.4610 -54.4022
   -54.3501 -54.3486 -54.3322 -54.3128 -54.3003 -54.2808 -54.2418 -54.2214
   -14.4495  -5.4624  -4.8092  -4.6696  -4.5877  -4.5127  -4.3867  -4.0965
    -3.9969  -3.7493  -3.6439  -3.2506  -3.1760  -3.0790  -3.0607  -2.9596
    -2.9119  -2.8680  -2.8227  -2.5924  -2.5898  -2.4217  -2.2082  -2.1162
    -1.4282  -0.0443   0.6370   0.8893   3.3828   4.3364   6.2443   6.6625
     6.8395   7.0296   7.6061   8.2989   8.3719   8.7875   9.2203  10.2178
    10.6793  10.9398  11.1275  11.3319  11.5890  12.0646  13.2327  13.7237
    14.0120  14.5680  14.7480  15.1214  15.7206  15.7998  16.5438  17.1026

          k =-0.0864 0.1497 0.0000 (  5031 PWs)   bands (ev):

   -91.0559 -90.8936 -90.8540 -90.8330 -54.5616 -54.5331 -54.4668 -54.3993
   -54.3804 -54.3783 -54.3502 -54.3250 -54.2962 -54.2891 -54.2387 -54.2227
   -14.0584  -5.2334  -4.7984  -4.6745  -4.5120  -4.4323  -4.2298  -4.1985
    -3.9997  -3.6979  -3.5968  -3.4035  -3.3043  -3.1499  -3.1200  -3.0457
    -2.8874  -2.8258  -2.5942  -2.5267  -2.4233  -2.1617  -2.0234  -1.5843
    -0.9243   0.7885   1.1294   3.0764   4.0435   6.1033   6.5786   6.8594
     7.5707   7.7680   8.0095   8.4422   8.9626   9.6236   9.9484  10.3018
    10.4358  10.8463  11.0763  11.1969  11.4593  12.0392  12.4837  13.0535
    13.4336  13.7659  13.9481  14.1940  14.5064  14.7260  15.3237  15.6022

          k =-0.0864-0.1497 0.0000 (  5038 PWs)   bands (ev):

   -91.0530 -90.8907 -90.8508 -90.8306 -54.5829 -54.5353 -54.4656 -54.4336
   -54.3935 -54.3923 -54.3690 -54.3418 -54.3219 -54.2816 -54.2357 -54.2249
   -13.5889  -5.5175  -5.0184  -4.4478  -4.4179  -4.2634  -4.2236  -4.1855
    -4.0399  -3.6093  -3.5907  -3.4667  -3.3832  -3.3706  -3.1667  -3.1376
    -2.7936  -2.5962  -2.4565  -2.4386  -2.1475  -2.0030  -1.7118  -0.8373
     1.1072   1.1579   2.9627   3.5561   5.6035   7.2765   7.5359   7.6097
     7.8363   8.0229   8.7739   9.0592   9.3403   9.6677   9.8700  10.1183
    10.2518  10.5477  10.7642  10.9662  11.1103  11.4164  11.7741  11.9425
    12.9711  13.1698  13.3541  13.5419  13.8724  14.0280  14.3503  14.6663

     the Fermi energy is     1.0757 ev

!    total energy              =   -1205.86464703 Ry
     Harris-Foulkes estimate   =   -1205.86464674 Ry
     estimated scf accuracy    <       0.00000031 Ry

     The total energy is the sum of the following terms:

     one-electron contribution =   -5795.17561855 Ry
     hartree contribution      =    2894.15662833 Ry
     xc contribution           =    -123.12007009 Ry
     ewald contribution        =    1818.28448172 Ry
     electric field correction =       0.00001220 Ry
     smearing contrib. (-TS)   =      -0.01008064 Ry

     convergence has been achieved in   6 iterations

     Forces acting on atoms (Ry/au):


     negative rho (up, down):  2.259E-03 0.000E+00
     atom    1 type  1   force =    -0.00045068    0.00024953   -0.01723531
     atom    2 type  1   force =     0.00036388   -0.00009728   -0.02719851
     atom    3 type  1   force =    -0.00561066    0.00428528    0.02213287
     atom    4 type  1   force =     0.00572016   -0.00492260    0.02252950
     atom    5 type  2   force =    -0.03244343    0.01253318   -0.07328733
     atom    6 type  3   force =    -0.00069353    0.00053878   -0.00008437
     atom    7 type  3   force =    -0.00002849    0.00170027    0.00026097
     atom    8 type  3   force =     0.03314274   -0.01428716    0.07288218

     Total force =     0.123856     Total SCF correction =     0.002955
 !ASE
     Check: negative starting charge=   -0.002213
     NEW-OLD atomic charge density approx. for the potential
     Check: negative starting charge=   -0.002215

     negative rho (up, down):  2.279E-03 0.000E+00
 
     Adding external electric field

     Computed dipole along edir(3) : 
        Dipole               -0.0426 Ry au,         -0.1084 Debye
        Dipole field         -0.0003 Ry au
 
        Potential amp.        0.0202 Ry
        Total length         35.2972 bohr
 

     total cpu time spent up to now is      657.8 secs

     per-process dynamical memory:    31.3 Mb

     Self-consistent Calculation

     iteration #  1     ecut=    29.40 Ry     beta=0.10
     Davidson diagonalization with overlap
     ethr =  1.20E-09,  avg # of iterations =  5.2

     negative rho (up, down):  2.277E-03 0.000E+00
 
     Adding external electric field

     Computed dipole along edir(3) : 
        Dipole               -0.0367 Ry au,         -0.0934 Debye
        Dipole field         -0.0002 Ry au
 
        Potential amp.        0.0174 Ry
        Total length         35.2972 bohr
 

     total cpu time spent up to now is      661.4 secs

     total energy              =   -1205.86468419 Ry
     Harris-Foulkes estimate   =   -1205.86472165 Ry
     estimated scf accuracy    <       0.00037883 Ry

     iteration #  2     ecut=    29.40 Ry     beta=0.10
     Davidson diagonalization with overlap
     ethr =  4.51E-07,  avg # of iterations =  1.0

     negative rho (up, down):  2.275E-03 0.000E+00
 
     Adding external electric field

     Computed dipole along edir(3) : 
        Dipole               -0.0401 Ry au,         -0.1020 Debye
        Dipole field         -0.0003 Ry au
 
        Potential amp.        0.0190 Ry
        Total length         35.2972 bohr
 

     total cpu time spent up to now is      662.7 secs

     total energy              =   -1205.86468110 Ry
     Harris-Foulkes estimate   =   -1205.86469682 Ry
     estimated scf accuracy    <       0.00028542 Ry

     iteration #  3     ecut=    29.40 Ry     beta=0.10
     Davidson diagonalization with overlap
     ethr =  3.40E-07,  avg # of iterations =  1.0

     negative rho (up, down):  2.273E-03 0.000E+00
 
     Adding external electric field

     Computed dipole along edir(3) : 
        Dipole               -0.0368 Ry au,         -0.0936 Debye
        Dipole field         -0.0002 Ry au
 
        Potential amp.        0.0174 Ry
        Total length         35.2972 bohr
 

     total cpu time spent up to now is      664.0 secs

     total energy              =   -1205.86465623 Ry
     Harris-Foulkes estimate   =   -1205.86468959 Ry
     estimated scf accuracy    <       0.00018447 Ry

     iteration #  4     ecut=    29.40 Ry     beta=0.10
     Davidson diagonalization with overlap
     ethr =  2.20E-07,  avg # of iterations =  2.0

     negative rho (up, down):  2.273E-03 0.000E+00
 
     Adding external electric field

     Computed dipole along edir(3) : 
        Dipole               -0.0368 Ry au,         -0.0936 Debye
        Dipole field         -0.0002 Ry au
 
        Potential amp.        0.0175 Ry
        Total length         35.2972 bohr
 

     total cpu time spent up to now is      665.5 secs

     total energy              =   -1205.86466616 Ry
     Harris-Foulkes estimate   =   -1205.86466680 Ry
     estimated scf accuracy    <       0.00004017 Ry

     iteration #  5     ecut=    29.40 Ry     beta=0.10
     Davidson diagonalization with overlap
     ethr =  4.78E-08,  avg # of iterations =  1.8

     negative rho (up, down):  2.276E-03 0.000E+00
 
     Adding external electric field

     Computed dipole along edir(3) : 
        Dipole               -0.0408 Ry au,         -0.1036 Debye
        Dipole field         -0.0003 Ry au
 
        Potential amp.        0.0193 Ry
        Total length         35.2972 bohr
 

     total cpu time spent up to now is      666.9 secs

     total energy              =   -1205.86466646 Ry
     Harris-Foulkes estimate   =   -1205.86466580 Ry
     estimated scf accuracy    <       0.00001447 Ry

     iteration #  6     ecut=    29.40 Ry     beta=0.10
     Davidson diagonalization with overlap
     ethr =  1.72E-08,  avg # of iterations =  2.0

     negative rho (up, down):  2.265E-03 0.000E+00
 
     Adding external electric field

     Computed dipole along edir(3) : 
        Dipole               -0.0395 Ry au,         -0.1005 Debye
        Dipole field         -0.0003 Ry au
 
        Potential amp.        0.0187 Ry
        Total length         35.2972 bohr
 

     total cpu time spent up to now is      668.4 secs

     End of self-consistent calculation

          k = 0.0000 0.0000 0.0000 (  5071 PWs)   bands (ev):

   -91.0504 -90.8887 -90.8491 -90.8258 -54.5659 -54.4949 -54.4553 -54.3900
   -54.3702 -54.3404 -54.3105 -54.2939 -54.2715 -54.2656 -54.2333 -54.2145
   -14.4701  -6.2513  -5.2409  -5.0429  -4.9305  -4.7435  -4.4789  -4.1035
    -3.6893  -3.6588  -3.6481  -3.5213  -3.5149  -3.2945  -3.0820  -2.6685
    -2.6404  -2.5136  -2.2624  -2.1883  -2.1380  -2.1178  -1.9122  -1.7718
    -0.2089   0.3214   1.4273   1.8117   2.4633   4.9403   5.1525   5.3703
     5.8566   6.4570   7.0855   7.9305   8.4117   9.3771   9.8469   9.9403
    10.6447  10.7619  11.3164  11.6090  11.8470  12.4740  12.6011  12.9614
    13.0168  13.2705  14.0365  14.4374  15.0045  15.2828  16.0843  16.3501

          k = 0.0000 0.0998 0.0000 (  5031 PWs)   bands (ev):

   -91.0474 -90.8860 -90.8452 -90.8241 -54.5618 -54.5137 -54.4609 -54.3823
   -54.3810 -54.3680 -54.3444 -54.3193 -54.2857 -54.2793 -54.2301 -54.2145
   -14.0704  -5.4795  -4.8227  -4.6233  -4.4706  -4.3486  -4.1974  -4.1232
    -3.8368  -3.6809  -3.5907  -3.3997  -3.2569  -3.1511  -3.1306  -3.0093
    -2.8670  -2.8489  -2.5873  -2.5168  -2.4286  -2.1697  -2.0127  -1.6546
    -0.9798   0.7788   1.1217   3.0434   3.9845   6.3378   6.5744   6.9035
     7.4763   7.8220   7.9995   8.4949   8.8794   9.6545   9.8152  10.3074
    10.4472  10.8811  11.0596  11.1741  11.3590  12.0181  12.5837  12.9799
    13.4551  13.6863  13.9071  14.2751  14.4196  14.9652  15.3502  15.6124

          k = 0.0000-0.1996 0.0000 (  5048 PWs)   bands (ev):

   -91.0445 -90.8831 -90.8420 -90.8217 -54.5811 -54.5386 -54.4621 -54.4133
   -54.3946 -54.3866 -54.3774 -54.3047 -54.2976 -54.2753 -54.2277 -54.2170
   -13.5957  -5.5683  -5.5166  -5.0293  -4.9474  -4.8229  -4.6643  -4.5882
    -3.9538  -3.8294  -3.2901  -3.2603  -2.9688  -2.6724  -2.5691  -2.2816
    -2.2640  -2.2515  -1.9360  -1.8952  -1.7857  -1.7684  -1.7678  -1.0536
     1.4547   1.6817   2.3807   2.5339   4.2530   5.4007   5.7194   5.9911
     7.6626   8.4278   8.6431   9.3865   9.7030  10.3818  10.6808  10.9001
    11.2970  11.3240  11.4384  11.5456  11.8222  12.1429  12.3167  12.3842
    12.6513  12.6817  12.9547  13.0038  13.1886  13.5077  13.7364  14.2212

          k =-0.0864 0.0499 0.0000 (  5024 PWs)   bands (ev):

   -91.0502 -90.8889 -90.8477 -90.8273 -54.5493 -54.4884 -54.4521 -54.3945
   -54.3424 -54.3402 -54.3233 -54.3039 -54.2922 -54.2716 -54.2333 -54.2131
   -14.4623  -5.4670  -4.8040  -4.6606  -4.5844  -4.5051  -4.3861  -4.0885
    -3.9897  -3.7418  -3.6357  -3.2424  -3.1679  -3.0706  -3.0529  -2.9513
    -2.9038  -2.8593  -2.8147  -2.5836  -2.5813  -2.4133  -2.2001  -2.1081
    -1.4209  -0.0609   0.6384   0.9101   3.3887   4.3583   6.2352   6.6672
     6.8417   7.0234   7.6013   8.2960   8.3696   8.7885   9.2269  10.2148
    10.6793  10.9311  11.1348  11.3431  11.5832  12.0663  13.2315  13.7280
    14.0172  14.5682  14.7432  15.1209  15.7303  15.8126  16.5620  17.1007

          k =-0.0864 0.1497 0.0000 (  5031 PWs)   bands (ev):

   -91.0474 -90.8860 -90.8452 -90.8241 -54.5542 -54.5239 -54.4585 -54.3920
   -54.3720 -54.3702 -54.3413 -54.3159 -54.2873 -54.2809 -54.2302 -54.2144
   -14.0706  -5.2366  -4.8060  -4.6699  -4.5042  -4.4241  -4.2227  -4.1898
    -3.9932  -3.6904  -3.5881  -3.3955  -3.2968  -3.1414  -3.1117  -3.0374
    -2.8799  -2.8179  -2.5856  -2.5188  -2.4176  -2.1535  -2.0172  -1.5755
    -0.9328   0.7981   1.1402   3.0823   4.0587   6.1080   6.5722   6.8622
     7.5784   7.7728   8.0092   8.4439   8.9688   9.6230   9.9508  10.3060
    10.4405  10.8479  11.0801  11.2052  11.4625  12.0456  12.4802  13.0554
    13.4399  13.7638  13.9421  14.2032  14.5105  14.7207  15.3289  15.6060

          k =-0.0864-0.1497 0.0000 (  5038 PWs)   bands (ev):

   -91.0445 -90.8831 -90.8420 -90.8217 -54.5746 -54.5268 -54.4574 -54.4265
   -54.3857 -54.3835 -54.3599 -54.3328 -54.3128 -54.2736 -54.2272 -54.2165
   -13.6002  -5.5338  -5.0245  -4.4392  -4.4096  -4.2554  -4.2159  -4.1771
    -4.0337  -3.6006  -3.5823  -3.4581  -3.3753  -3.3629  -3.1585  -3.1288
    -2.7860  -2.5894  -2.4508  -2.4317  -2.1399  -1.9943  -1.6964  -0.8461
     1.1167   1.1651   2.9656   3.5687   5.6097   7.2882   7.5441   7.6173
     7.8432   8.0334   8.7709   9.0651   9.3316   9.6744   9.8728  10.1239
    10.2550  10.5607  10.7688  10.9690  11.1107  11.4192  11.7786  11.9473
    12.9745  13.1693  13.3551  13.5514  13.8792  14.0336  14.3576  14.6663

     the Fermi energy is     1.0860 ev

!    total energy              =   -1205.86466887 Ry
     Harris-Foulkes estimate   =   -1205.86466841 Ry
     estimated scf accuracy    <       0.00000096 Ry

     The total energy is the sum of the following terms:

     one-electron contribution =   -5799.03306807 Ry
     hartree contribution      =    2896.09615011 Ry
     xc contribution           =    -123.12215114 Ry
     ewald contribution        =    1820.20452151 Ry
     electric field correction =       0.00001048 Ry
     smearing contrib. (-TS)   =      -0.01013175 Ry

     convergence has been achieved in   6 iterations

     Forces acting on atoms (Ry/au):


     negative rho (up, down):  2.265E-03 0.000E+00
     atom    1 type  1   force =    -0.00052826    0.00031180   -0.01644251
     atom    2 type  1   force =     0.00049741   -0.00017760   -0.02668479
     atom    3 type  1   force =    -0.00624054    0.00452600    0.02102772
     atom    4 type  1   force =     0.00613438   -0.00516876    0.02207421
     atom    5 type  2   force =    -0.03409534    0.01321102   -0.07180619
     atom    6 type  3   force =    -0.00000636    0.00038982    0.00010469
     atom    7 type  3   force =     0.00019425    0.00062586   -0.00002513
     atom    8 type  3   force =     0.03404446   -0.01371814    0.07175200

     Total force =     0.122579     Total SCF correction =     0.003925
 !ASE
 
     init_run     :      0.92s CPU      0.94s WALL (       1 calls)
     electrons    :    603.42s CPU    608.42s WALL (      42 calls)
     update_pot   :     18.30s CPU     18.66s WALL (      41 calls)
     forces       :     25.16s CPU     25.29s WALL (      42 calls)

     Called by init_run:
     wfcinit      :      0.33s CPU      0.33s WALL (       1 calls)
     potinit      :      0.14s CPU      0.14s WALL (       1 calls)

     Called by electrons:
     c_bands      :    462.48s CPU    466.18s WALL (     358 calls)
     sum_band     :     89.27s CPU     90.01s WALL (     358 calls)
     v_of_rho     :      9.67s CPU      9.80s WALL (     400 calls)
     newd         :     43.78s CPU     43.99s WALL (     400 calls)
     mix_rho      :      2.31s CPU      2.34s WALL (     358 calls)

     Called by c_bands:
     init_us_2    :      2.56s CPU      2.55s WALL (    4554 calls)
     cegterg      :    448.37s CPU    451.93s WALL (    2148 calls)

     Called by *egterg:
     h_psi        :    199.80s CPU    202.34s WALL (    7567 calls)
     s_psi        :     13.27s CPU     13.36s WALL (    7567 calls)
     g_psi        :      1.99s CPU      1.98s WALL (    5413 calls)
     cdiaghg      :    128.11s CPU    128.55s WALL (    7315 calls)

     Called by h_psi:
     add_vuspsi   :     13.62s CPU     13.74s WALL (    7567 calls)

     General routines
     calbec       :     24.88s CPU     25.17s WALL (    9967 calls)
     fft          :      9.69s CPU      9.82s WALL (    6735 calls)
     ffts         :      0.25s CPU      0.26s WALL (     758 calls)
     fftw         :    168.23s CPU    170.47s WALL (  864786 calls)
     interpolate  :      1.23s CPU      1.28s WALL (     758 calls)
 
     Parallel routines
     fft_scatter  :     80.99s CPU     80.62s WALL (  872279 calls)
 
     PWSCF        : 10m52.97s CPU    11m 9.18s WALL

 
   This run was terminated on:   6:13:31  18Feb2017            

=------------------------------------------------------------------------------=
   JOB DONE.
=------------------------------------------------------------------------------=
Job  /afs/slac/g/suncat/bin/suncat-tsmpirun -x LD_LIBRARY_PATH -wdir /scratch/qe259882_CFrnu pw.x -in pw.inp

TID   HOST_NAME   COMMAND_LINE            STATUS            TERMINATION_TIME
===== ========== ================  =======================  ===================
00000 suncat1015 pw.x -in pw.inp   Done                     02/18/2017 06:13:31
00001 suncat1015 pw.x -in pw.inp   Done                     02/18/2017 06:13:31
00002 suncat1015 pw.x -in pw.inp   Done                     02/18/2017 06:13:31
00003 suncat1015 pw.x -in pw.inp   Done                     02/18/2017 06:13:31
00004 suncat1015 pw.x -in pw.inp   Done                     02/18/2017 06:13:31
00005 suncat1015 pw.x -in pw.inp   Done                     02/18/2017 06:13:31
00006 suncat1015 pw.x -in pw.inp   Done                     02/18/2017 06:13:31
00007 suncat1015 pw.x -in pw.inp   Done                     02/18/2017 06:13:31
00008 suncat1015 pw.x -in pw.inp   Done                     02/18/2017 06:13:31
00009 suncat1015 pw.x -in pw.inp   Done                     02/18/2017 06:13:31
00010 suncat1015 pw.x -in pw.inp   Done                     02/18/2017 06:13:31
00011 suncat1015 pw.x -in pw.inp   Done                     02/18/2017 06:13:31
