  python dir          : /nfs/slac/g/suncatfs/aidank/software/ase-espresso/lib/python2.7/site-packages/espresso
  espresso dir        : /nfs/slac/g/suncatfs/aidank/software/espresso-qeforge/bin
  pseudo dir          : /nfs/slac/g/suncatfs/aidank/scripts/gbrv/
  ase-espresso py git : c91b4c2-git



     Program PWSCF v.5.0.2 (svn rev. 10453) starts on 18Feb2017 at  5:34:44 

     This program is part of the open-source Quantum ESPRESSO suite
     for quantum simulation of materials; please cite
         "P. Giannozzi et al., J. Phys.:Condens. Matter 21 395502 (2009);
          URL http://www.quantum-espresso.org", 
     in publications or presentations arising from this work. More details at
     http://www.quantum-espresso.org/quote

     Parallel version (MPI), running on    12 processors
     R & G space division:  proc/nbgrp/npool/nimage =      12
     Reading input from pw.inp
     Message from routine read_cards :
     DEPRECATED: no units specified in CELL_PARAMETERS card

     Current dimensions of program PWSCF are:
     Max number of different atomic species (ntypx) = 10
     Max number of k-points (npk) =  40000
     Max angular momentum in pseudopotentials (lmaxx) =  3
     Presently no symmetry can be used with electric field


     IMPORTANT: XC functional enforced from input :
     Exchange-correlation      = PBE ( 1  4  3  4 0)
     Any further DFT definition will be discarded
     Please, verify this is what you really want


     Subspace diagonalization in iterative solution of the eigenvalue problem:
     a serial algorithm will be used

 
     Parallelization info
     --------------------
     sticks:   dense  smooth     PW     G-vecs:    dense   smooth      PW
     Min          81      39     12                 9513     3338     586
     Max          82      40     16                 9522     3378     597
     Sum         981     479    161               114205    40347    7083
 


     bravais-lattice index     =            0
     lattice parameter (alat)  =       1.8897  a.u.
     unit-cell volume          =    1872.8848 (a.u.)^3
     number of atoms/cell      =            8
     number of atomic types    =            3
     number of electrons       =        84.00
     number of Kohn-Sham states=           72
     kinetic-energy cutoff     =      29.3995  Ry
     charge density cutoff     =     235.1957  Ry
     convergence threshold     =      1.0E-06
     mixing beta               =       0.1000
     number of iterations used =           15  plain     mixing
     Exchange-correlation      = PBE ( 1  4  3  4 0)
     nstep                     =           50


     celldm(1)=   1.889726  celldm(2)=   0.000000  celldm(3)=   0.000000
     celldm(4)=   0.000000  celldm(5)=   0.000000  celldm(6)=   0.000000

     crystal axes: (cart. coord. in units of alat)
               a(1) = (   5.784133   0.000000   0.000000 )  
               a(2) = (   1.446033   2.504603   0.000000 )  
               a(3) = (   0.000000   0.000000  19.157428 )  

     reciprocal axes: (cart. coord. in units 2 pi/alat)
               b(1) = (  0.172887 -0.099816  0.000000 )  
               b(2) = (  0.000000  0.399265  0.000000 )  
               b(3) = (  0.000000  0.000000  0.052199 )  


     PseudoPot. # 1 for Ag read from file:
     /nfs/slac/g/suncatfs/aidank/scripts/gbrv/Ag.UPF
     MD5 check sum: d66d668201baa78d5eb5b04ef7011058
     Pseudo is Ultrasoft + core correction, Zval = 19.0
     Generated by new atomic code, or converted to UPF format
     Using radial grid of  887 points,  6 beta functions with: 
                l(1) =   0
                l(2) =   0
                l(3) =   1
                l(4) =   1
                l(5) =   2
                l(6) =   2
     Q(r) pseudized with  6 coefficients,  rinner =    1.300   1.300   1.300
                                                       1.300   1.300

     PseudoPot. # 2 for N  read from file:
     /nfs/slac/g/suncatfs/aidank/scripts/gbrv/N.UPF
     MD5 check sum: 95339753478d7afb44899504a8723017
     Pseudo is Ultrasoft + core correction, Zval =  5.0
     Generated by new atomic code, or converted to UPF format
     Using radial grid of  729 points,  4 beta functions with: 
                l(1) =   0
                l(2) =   0
                l(3) =   1
                l(4) =   1
     Q(r) pseudized with  8 coefficients,  rinner =    0.900   0.900   0.900


     PseudoPot. # 3 for H  read from file:
     /nfs/slac/g/suncatfs/aidank/scripts/gbrv/H.UPF
     MD5 check sum: 761ae9a214b05c3daf00ab9f6b793d6f
     Pseudo is Ultrasoft, Zval =  1.0
     Generated by new atomic code, or converted to UPF format
     Using radial grid of  615 points,  2 beta functions with: 
                l(1) =   0
                l(2) =   0
     Q(r) pseudized with  8 coefficients,  rinner =    0.700

     atomic species   valence    mass     pseudopotential
        Ag1           19.00   107.86800     Ag( 1.00)
        N1             5.00    14.00670     N ( 1.00)
        H1             1.00     1.00794     H ( 1.00)

     No symmetry found



   Cartesian axes

     site n.     atom                  positions (alat units)
         1           Ag1 tau(   1) = (   5.4594866   0.7084522   7.1205000  )
         2           Ag1 tau(   2) = (   2.5674199   0.7084522   7.1205000  )
         3           Ag1 tau(   3) = (   1.1213865   1.5433200   9.4818626  )
         4           Ag1 tau(   4) = (   4.0134533   1.5433200   9.4818626  )
         5           N1  tau(   5) = (   4.7606120   1.6757251  11.3819054  )
         6           H1  tau(   6) = (   4.5005772   2.0886938  12.2870846  )
         7           H1  tau(   7) = (   4.4762475   0.7096787  11.5153988  )
         8           H1  tau(   8) = (   2.8850125   2.2248169  10.8577529  )

     number of k points=     6  Fermi-Dirac smearing, width (Ry)=  0.0073
                       cart. coord. in units 2pi/alat
        k(    1) = (   0.0000000   0.0000000   0.0000000), wk =   0.2500000
        k(    2) = (   0.0000000   0.0998162   0.0000000), wk =   0.5000000
        k(    3) = (   0.0000000  -0.1996324   0.0000000), wk =   0.2500000
        k(    4) = (  -0.0864434   0.0499081   0.0000000), wk =   0.2500000
        k(    5) = (  -0.0864434   0.1497243   0.0000000), wk =   0.5000000
        k(    6) = (  -0.0864434  -0.1497243   0.0000000), wk =   0.2500000

     Dense  grid:   114205 G-vectors     FFT dimensions: (  54,  27, 180)

     Smooth grid:    40347 G-vectors     FFT dimensions: (  40,  20, 125)

     Largest allocated arrays     est. size (Mb)     dimensions
        Kohn-Sham Wavefunctions         0.49 Mb     (     450,   72)
        NL pseudopotentials             0.59 Mb     (     450,   86)
        Each V/rho on FFT grid          0.33 Mb     (   21870)
        Each G-vector array             0.07 Mb     (    9513)
        G-vector shells                 0.03 Mb     (    3999)
     Largest temporary arrays     est. size (Mb)     dimensions
        Auxiliary wavefunctions         1.98 Mb     (     450,  288)
        Each subspace H/S matrix        1.27 Mb     (     288,  288)
        Each <psi_i|beta_j> matrix      0.09 Mb     (      86,   72)
        Arrays for rho mixing           5.01 Mb     (   21870,   15)

     Initial potential from superposition of free atoms
     Check: negative starting charge=   -0.002429

     starting charge   81.99978, renormalised to   84.00000

     negative rho (up, down):  2.488E-03 0.000E+00
 
     Adding external electric field

     Computed dipole along edir(3) : 
        Dipole               -1.1596 Ry au,         -2.9474 Debye
        Dipole field         -0.0078 Ry au
 
        Potential amp.        0.5493 Ry
        Total length         35.2972 bohr
 
     Starting wfc are   59 randomized atomic wfcs +   13 random wfc

     total cpu time spent up to now is        1.1 secs

     per-process dynamical memory:    18.4 Mb

     Self-consistent Calculation

     iteration #  1     ecut=    29.40 Ry     beta=0.10
     Davidson diagonalization with overlap
     ethr =  1.00E-02,  avg # of iterations =  7.0

     negative rho (up, down):  1.093E-03 0.000E+00
 
     Adding external electric field

     Computed dipole along edir(3) : 
        Dipole                1.3867 Ry au,          3.5247 Debye
        Dipole field          0.0093 Ry au
 
        Potential amp.       -0.6568 Ry
        Total length         35.2972 bohr
 

     total cpu time spent up to now is        5.0 secs

     total energy              =   -1203.75328185 Ry
     Harris-Foulkes estimate   =   -1207.61491774 Ry
     estimated scf accuracy    <      22.04034127 Ry

     iteration #  2     ecut=    29.40 Ry     beta=0.10
     Davidson diagonalization with overlap
     ethr =  1.00E-02,  avg # of iterations =  3.5

     negative rho (up, down):  8.036E-04 0.000E+00
 
     Adding external electric field

     Computed dipole along edir(3) : 
        Dipole                0.0490 Ry au,          0.1246 Debye
        Dipole field          0.0003 Ry au
 
        Potential amp.       -0.0232 Ry
        Total length         35.2972 bohr
 

     total cpu time spent up to now is        6.9 secs

     total energy              =   -1205.18315360 Ry
     Harris-Foulkes estimate   =   -1207.28882780 Ry
     estimated scf accuracy    <      22.19407965 Ry

     iteration #  3     ecut=    29.40 Ry     beta=0.10
     Davidson diagonalization with overlap
     ethr =  1.00E-02,  avg # of iterations =  2.7

     negative rho (up, down):  8.755E-04 0.000E+00
 
     Adding external electric field

     Computed dipole along edir(3) : 
        Dipole               -0.0658 Ry au,         -0.1673 Debye
        Dipole field         -0.0004 Ry au
 
        Potential amp.        0.0312 Ry
        Total length         35.2972 bohr
 

     total cpu time spent up to now is        8.5 secs

     total energy              =   -1205.91032877 Ry
     Harris-Foulkes estimate   =   -1206.15333188 Ry
     estimated scf accuracy    <       1.26429459 Ry

     iteration #  4     ecut=    29.40 Ry     beta=0.10
     Davidson diagonalization with overlap
     ethr =  1.51E-03,  avg # of iterations =  2.7

     negative rho (up, down):  9.357E-04 0.000E+00
 
     Adding external electric field

     Computed dipole along edir(3) : 
        Dipole                0.2225 Ry au,          0.5656 Debye
        Dipole field          0.0015 Ry au
 
        Potential amp.       -0.1054 Ry
        Total length         35.2972 bohr
 

     total cpu time spent up to now is       10.1 secs

     total energy              =   -1205.76713634 Ry
     Harris-Foulkes estimate   =   -1205.95994751 Ry
     estimated scf accuracy    <       0.59094743 Ry

     iteration #  5     ecut=    29.40 Ry     beta=0.10
     Davidson diagonalization with overlap
     ethr =  7.04E-04,  avg # of iterations =  3.5

     negative rho (up, down):  1.017E-03 0.000E+00
 
     Adding external electric field

     Computed dipole along edir(3) : 
        Dipole                0.1488 Ry au,          0.3781 Debye
        Dipole field          0.0010 Ry au
 
        Potential amp.       -0.0705 Ry
        Total length         35.2972 bohr
 

     total cpu time spent up to now is       11.8 secs

     total energy              =   -1205.82099888 Ry
     Harris-Foulkes estimate   =   -1205.84453630 Ry
     estimated scf accuracy    <       0.20084053 Ry

     iteration #  6     ecut=    29.40 Ry     beta=0.10
     Davidson diagonalization with overlap
     ethr =  2.39E-04,  avg # of iterations =  1.5

     negative rho (up, down):  1.269E-03 0.000E+00
 
     Adding external electric field

     Computed dipole along edir(3) : 
        Dipole                0.0799 Ry au,          0.2030 Debye
        Dipole field          0.0005 Ry au
 
        Potential amp.       -0.0378 Ry
        Total length         35.2972 bohr
 

     total cpu time spent up to now is       13.2 secs

     total energy              =   -1205.82062922 Ry
     Harris-Foulkes estimate   =   -1205.82928851 Ry
     estimated scf accuracy    <       0.03019858 Ry

     iteration #  7     ecut=    29.40 Ry     beta=0.10
     Davidson diagonalization with overlap
     ethr =  3.60E-05,  avg # of iterations =  5.7

     negative rho (up, down):  1.519E-03 0.000E+00
 
     Adding external electric field

     Computed dipole along edir(3) : 
        Dipole                0.1450 Ry au,          0.3684 Debye
        Dipole field          0.0010 Ry au
 
        Potential amp.       -0.0687 Ry
        Total length         35.2972 bohr
 

     total cpu time spent up to now is       15.4 secs

     total energy              =   -1205.81841797 Ry
     Harris-Foulkes estimate   =   -1205.82546506 Ry
     estimated scf accuracy    <       0.06101570 Ry

     iteration #  8     ecut=    29.40 Ry     beta=0.10
     Davidson diagonalization with overlap
     ethr =  3.60E-05,  avg # of iterations =  4.5

     negative rho (up, down):  1.581E-03 0.000E+00
 
     Adding external electric field

     Computed dipole along edir(3) : 
        Dipole                0.1200 Ry au,          0.3051 Debye
        Dipole field          0.0008 Ry au
 
        Potential amp.       -0.0569 Ry
        Total length         35.2972 bohr
 

     total cpu time spent up to now is       17.4 secs

     total energy              =   -1205.82212193 Ry
     Harris-Foulkes estimate   =   -1205.82256699 Ry
     estimated scf accuracy    <       0.00597522 Ry

     iteration #  9     ecut=    29.40 Ry     beta=0.10
     Davidson diagonalization with overlap
     ethr =  7.11E-06,  avg # of iterations =  2.3

     negative rho (up, down):  2.039E-03 0.000E+00
 
     Adding external electric field

     Computed dipole along edir(3) : 
        Dipole                0.0735 Ry au,          0.1868 Debye
        Dipole field          0.0005 Ry au
 
        Potential amp.       -0.0348 Ry
        Total length         35.2972 bohr
 

     total cpu time spent up to now is       18.9 secs

     total energy              =   -1205.82200823 Ry
     Harris-Foulkes estimate   =   -1205.82232046 Ry
     estimated scf accuracy    <       0.00110786 Ry

     iteration # 10     ecut=    29.40 Ry     beta=0.10
     Davidson diagonalization with overlap
     ethr =  1.32E-06,  avg # of iterations =  4.2

     negative rho (up, down):  2.049E-03 0.000E+00
 
     Adding external electric field

     Computed dipole along edir(3) : 
        Dipole                0.0786 Ry au,          0.1999 Debye
        Dipole field          0.0005 Ry au
 
        Potential amp.       -0.0372 Ry
        Total length         35.2972 bohr
 

     total cpu time spent up to now is       21.0 secs

     total energy              =   -1205.82214820 Ry
     Harris-Foulkes estimate   =   -1205.82220138 Ry
     estimated scf accuracy    <       0.00024625 Ry

     iteration # 11     ecut=    29.40 Ry     beta=0.10
     Davidson diagonalization with overlap
     ethr =  2.93E-07,  avg # of iterations =  1.0

     negative rho (up, down):  2.177E-03 0.000E+00
 
     Adding external electric field

     Computed dipole along edir(3) : 
        Dipole                0.0755 Ry au,          0.1920 Debye
        Dipole field          0.0005 Ry au
 
        Potential amp.       -0.0358 Ry
        Total length         35.2972 bohr
 

     total cpu time spent up to now is       22.3 secs

     total energy              =   -1205.82217353 Ry
     Harris-Foulkes estimate   =   -1205.82217533 Ry
     estimated scf accuracy    <       0.00003948 Ry

     iteration # 12     ecut=    29.40 Ry     beta=0.10
     Davidson diagonalization with overlap
     ethr =  4.70E-08,  avg # of iterations =  1.2

     negative rho (up, down):  2.348E-03 0.000E+00
 
     Adding external electric field

     Computed dipole along edir(3) : 
        Dipole                0.0721 Ry au,          0.1833 Debye
        Dipole field          0.0005 Ry au
 
        Potential amp.       -0.0342 Ry
        Total length         35.2972 bohr
 

     total cpu time spent up to now is       23.6 secs

     total energy              =   -1205.82217893 Ry
     Harris-Foulkes estimate   =   -1205.82218063 Ry
     estimated scf accuracy    <       0.00001558 Ry

     iteration # 13     ecut=    29.40 Ry     beta=0.10
     Davidson diagonalization with overlap
     ethr =  1.85E-08,  avg # of iterations =  2.0

     negative rho (up, down):  2.422E-03 0.000E+00
 
     Adding external electric field

     Computed dipole along edir(3) : 
        Dipole                0.0728 Ry au,          0.1850 Debye
        Dipole field          0.0005 Ry au
 
        Potential amp.       -0.0345 Ry
        Total length         35.2972 bohr
 

     total cpu time spent up to now is       25.1 secs

     total energy              =   -1205.82218174 Ry
     Harris-Foulkes estimate   =   -1205.82218056 Ry
     estimated scf accuracy    <       0.00000536 Ry

     iteration # 14     ecut=    29.40 Ry     beta=0.10
     Davidson diagonalization with overlap
     ethr =  6.39E-09,  avg # of iterations =  1.0

     negative rho (up, down):  2.438E-03 0.000E+00
 
     Adding external electric field

     Computed dipole along edir(3) : 
        Dipole                0.0722 Ry au,          0.1835 Debye
        Dipole field          0.0005 Ry au
 
        Potential amp.       -0.0342 Ry
        Total length         35.2972 bohr
 

     total cpu time spent up to now is       26.4 secs

     total energy              =   -1205.82218324 Ry
     Harris-Foulkes estimate   =   -1205.82218301 Ry
     estimated scf accuracy    <       0.00000150 Ry

     iteration # 15     ecut=    29.40 Ry     beta=0.10
     Davidson diagonalization with overlap
     ethr =  1.79E-09,  avg # of iterations =  2.0

     negative rho (up, down):  2.473E-03 0.000E+00
 
     Adding external electric field

     Computed dipole along edir(3) : 
        Dipole                0.0696 Ry au,          0.1770 Debye
        Dipole field          0.0005 Ry au
 
        Potential amp.       -0.0330 Ry
        Total length         35.2972 bohr
 

     total cpu time spent up to now is       27.9 secs

     End of self-consistent calculation

          k = 0.0000 0.0000 0.0000 (  5071 PWs)   bands (ev):

   -90.6982 -90.4446 -90.4008 -90.2457 -54.2140 -54.1687 -54.0754 -53.9745
   -53.8844 -53.8628 -53.8477 -53.8390 -53.8106 -53.7178 -53.6830 -53.6573
   -14.9468  -5.8217  -5.3771  -4.7247  -4.6138  -4.3937  -4.3416  -3.5741
    -3.2322  -3.1559  -3.1185  -3.0661  -3.0347  -2.9312  -2.7119  -2.3031
    -2.1591  -2.0541  -1.9578  -1.7028  -1.6470  -1.5947  -1.3795  -1.3034
    -0.1750   0.6626   1.1299   2.5390   3.5583   4.8617   5.3086   5.8678
     6.3470   6.8155   7.6129   8.1608   9.2076   9.3409   9.5607  10.0383
    10.7539  10.8402  11.2452  11.5373  11.7211  12.2001  12.5811  12.8637
    13.1649  13.7660  14.0874  14.4468  15.0373  15.1679  15.7872  16.5501

          k = 0.0000 0.0998 0.0000 (  5031 PWs)   bands (ev):

   -90.6953 -90.4412 -90.3985 -90.2429 -54.2095 -54.1627 -54.1143 -53.9555
   -53.9209 -53.8847 -53.8673 -53.8489 -53.8086 -53.7207 -53.6961 -53.6801
   -14.5173  -5.7539  -4.7426  -4.4176  -4.2289  -3.9562  -3.8660  -3.6116
    -3.4940  -3.3846  -3.1696  -3.0075  -2.8773  -2.7238  -2.6560  -2.5460
    -2.4235  -2.3363  -2.2040  -2.0895  -1.9141  -1.7198  -1.5651  -0.9420
    -0.4842   1.3333   2.0865   3.0443   5.0217   6.2615   6.5115   7.0858
     7.8684   8.1469   8.3821   8.8189   9.0528   9.4749   9.7844  10.5880
    10.6263  10.9019  11.0948  11.4591  11.9682  12.3387  12.4620  13.3069
    13.5605  13.6456  14.1430  14.4382  14.9097  15.0710  15.5224  15.5727

          k = 0.0000-0.1996 0.0000 (  5048 PWs)   bands (ev):

   -90.6924 -90.4382 -90.3958 -90.2401 -54.2065 -54.1681 -54.1480 -53.9729
   -53.9660 -53.8928 -53.8690 -53.8467 -53.8056 -53.7317 -53.7172 -53.6795
   -13.9980  -6.4948  -4.9663  -4.7930  -4.5843  -4.5314  -4.2949  -4.0452
    -3.7546  -3.5697  -3.0246  -2.8161  -2.6950  -2.3572  -2.0603  -1.8928
    -1.7769  -1.7660  -1.4581  -1.3705  -1.3355  -1.2346  -0.8979  -0.1760
     1.7351   2.3682   2.7547   3.2749   4.7744   6.1060   6.2011   6.4373
     8.0936   8.3249   9.0068  10.0586  10.2979  10.6064  10.6659  10.7453
    11.0705  11.1524  11.3181  11.3871  11.6216  12.1195  12.3148  12.4361
    12.5973  12.6886  13.0983  13.2970  13.5643  13.6882  14.2566  14.4444

          k =-0.0864 0.0499 0.0000 (  5024 PWs)   bands (ev):

   -90.6981 -90.4438 -90.4016 -90.2458 -54.2132 -54.1615 -54.0740 -53.9363
   -53.8909 -53.8776 -53.8540 -53.8450 -53.8159 -53.7254 -53.6822 -53.6571
   -14.9343  -5.6304  -4.9421  -4.3528  -4.1156  -4.0480  -3.9268  -3.5898
    -3.4404  -3.3569  -3.1719  -3.0169  -2.7723  -2.6482  -2.5875  -2.5411
    -2.4316  -2.3572  -2.2958  -2.2062  -2.1513  -1.9006  -1.6549  -1.5853
    -1.0724  -0.3052   1.5255   2.3716   3.4450   5.3989   6.1755   6.4183
     6.6651   6.8602   7.3974   7.8540   8.2810   8.6346   9.4743  10.0080
    10.4631  10.8828  11.3657  11.8566  12.1297  12.7255  13.7729  13.9324
    14.5152  14.6396  15.4554  15.7179  15.9327  16.2301  16.4612  17.2420

          k =-0.0864 0.1497 0.0000 (  5031 PWs)   bands (ev):

   -90.6953 -90.4412 -90.3985 -90.2429 -54.2095 -54.1612 -54.1161 -53.9541
   -53.9219 -53.8883 -53.8640 -53.8487 -53.8090 -53.7200 -53.6964 -53.6802
   -14.5172  -5.7417  -4.7350  -4.4168  -4.1469  -3.9106  -3.8723  -3.7413
    -3.4876  -3.3967  -3.1767  -3.0447  -2.8768  -2.7445  -2.6304  -2.5419
    -2.4613  -2.3353  -2.2363  -2.0917  -1.9817  -1.7018  -1.6102  -0.8014
    -0.4679   1.5458   2.0262   3.1571   4.8578   6.2168   6.4922   7.0331
     7.8093   8.1177   8.2669   8.8022   8.9777   9.4576   9.7426  10.5295
    10.6892  10.8772  11.1930  11.6524  11.9862  12.2696  12.5266  13.4839
    13.6234  13.8411  14.1778  14.5786  14.8516  15.0955  15.5033  15.5825

          k =-0.0864-0.1497 0.0000 (  5038 PWs)   bands (ev):

   -90.6924 -90.4382 -90.3959 -90.2401 -54.2061 -54.1653 -54.1445 -53.9592
   -53.9299 -53.9285 -53.8829 -53.8480 -53.8067 -53.7357 -53.7195 -53.6790
   -14.0051  -6.4893  -4.8019  -4.1862  -3.9610  -3.8862  -3.7444  -3.6970
    -3.6301  -3.4260  -3.1854  -3.1127  -2.9437  -2.8981  -2.7529  -2.6989
    -2.3808  -2.2841  -1.9926  -1.8663  -1.6500  -1.4405  -0.7152   0.0664
     1.4638   1.9249   2.9316   4.3369   5.5193   7.6759   7.9385   8.0771
     8.3629   8.6035   8.8692   9.1764   9.4844   9.6401  10.0085  10.1078
    10.4579  10.7244  10.9534  11.3301  11.7924  11.9842  12.2906  12.5118
    12.9126  13.6306  13.6520  13.8984  14.3472  14.6708  14.8629  14.9309

     the Fermi energy is     1.8082 ev

!    total energy              =   -1205.82218764 Ry
     Harris-Foulkes estimate   =   -1205.82218587 Ry
     estimated scf accuracy    <       0.00000038 Ry

     The total energy is the sum of the following terms:

     one-electron contribution =   -6068.13149923 Ry
     hartree contribution      =    3031.80725455 Ry
     xc contribution           =    -123.27841718 Ry
     ewald contribution        =    1953.78648811 Ry
     electric field correction =       0.00003253 Ry
     smearing contrib. (-TS)   =      -0.00604642 Ry

     convergence has been achieved in  15 iterations

     Forces acting on atoms (Ry/au):


     negative rho (up, down):  2.473E-03 0.000E+00
     atom    1 type  1   force =    -0.00239373    0.00221061   -0.00508330
     atom    2 type  1   force =     0.00241429   -0.00184647   -0.00918919
     atom    3 type  1   force =     0.00647181   -0.01105292    0.03313630
     atom    4 type  1   force =    -0.03858813    0.02133180   -0.04905637
     atom    5 type  2   force =     0.04318015   -0.00231934    0.06400134
     atom    6 type  3   force =    -0.01240261    0.02712030   -0.00915137
     atom    7 type  3   force =     0.01330960   -0.04057944    0.01747299
     atom    8 type  3   force =    -0.01199137    0.00513545   -0.04213041

     Total force =     0.129446     Total SCF correction =     0.004513
 !ASE
  python dir          : /nfs/slac/g/suncatfs/aidank/software/ase-espresso/lib/python2.7/site-packages/espresso
  espresso dir        : /nfs/slac/g/suncatfs/aidank/software/espresso-qeforge/bin
  pseudo dir          : /nfs/slac/g/suncatfs/aidank/scripts/gbrv/
  ase-espresso py git : c91b4c2-git


 
     init_run     :      0.94s CPU      0.95s WALL (       1 calls)
     electrons    :     26.74s CPU     26.88s WALL (       1 calls)
     forces       :      0.60s CPU      0.60s WALL (       1 calls)

     Called by init_run:
     wfcinit      :      0.33s CPU      0.34s WALL (       1 calls)
     potinit      :      0.14s CPU      0.14s WALL (       1 calls)

     Called by electrons:
     c_bands      :     20.75s CPU     20.86s WALL (      15 calls)
     sum_band     :      3.83s CPU      3.85s WALL (      15 calls)
     v_of_rho     :      0.39s CPU      0.39s WALL (      16 calls)
     newd         :      1.72s CPU      1.72s WALL (      16 calls)
     mix_rho      :      0.12s CPU      0.12s WALL (      15 calls)

     Called by c_bands:
     init_us_2    :      0.12s CPU      0.11s WALL (     192 calls)
     cegterg      :     20.14s CPU     20.24s WALL (      90 calls)

     Called by *egterg:
     h_psi        :      8.68s CPU      8.77s WALL (     364 calls)
     s_psi        :      0.56s CPU      0.57s WALL (     364 calls)
     g_psi        :      0.08s CPU      0.08s WALL (     268 calls)
     cdiaghg      :      6.44s CPU      6.46s WALL (     358 calls)

     Called by h_psi:
     add_vuspsi   :      0.59s CPU      0.59s WALL (     364 calls)

     General routines
     calbec       :      1.12s CPU      1.12s WALL (     460 calls)
     fft          :      0.33s CPU      0.33s WALL (     263 calls)
     ffts         :      0.02s CPU      0.01s WALL (      31 calls)
     fftw         :      7.38s CPU      7.43s WALL (   36688 calls)
     interpolate  :      0.05s CPU      0.05s WALL (      31 calls)
 
     Parallel routines
     fft_scatter  :      3.48s CPU      3.55s WALL (   36982 calls)
 
     PWSCF        :    28.34s CPU        28.71s WALL

 
   This run was terminated on:   5:35:12  18Feb2017            

=------------------------------------------------------------------------------=
   JOB DONE.
=------------------------------------------------------------------------------=
Job  /afs/slac/g/suncat/bin/suncat-tsmpirun -x LD_LIBRARY_PATH -wdir /scratch/qe259882_yxWYj pw.x -in pw.inp

TID   HOST_NAME   COMMAND_LINE            STATUS            TERMINATION_TIME
===== ========== ================  =======================  ===================
00000 suncat1015 pw.x -in pw.inp   Done                     02/18/2017 05:35:12
00001 suncat1015 pw.x -in pw.inp   Done                     02/18/2017 05:35:12
00002 suncat1015 pw.x -in pw.inp   Done                     02/18/2017 05:35:12
00003 suncat1015 pw.x -in pw.inp   Done                     02/18/2017 05:35:12
00004 suncat1015 pw.x -in pw.inp   Done                     02/18/2017 05:35:12
00005 suncat1015 pw.x -in pw.inp   Done                     02/18/2017 05:35:12
00006 suncat1015 pw.x -in pw.inp   Done                     02/18/2017 05:35:12
00007 suncat1015 pw.x -in pw.inp   Done                     02/18/2017 05:35:12
00008 suncat1015 pw.x -in pw.inp   Done                     02/18/2017 05:35:12
00009 suncat1015 pw.x -in pw.inp   Done                     02/18/2017 05:35:12
00010 suncat1015 pw.x -in pw.inp   Done                     02/18/2017 05:35:12
00011 suncat1015 pw.x -in pw.inp   Done                     02/18/2017 05:35:12

     Program PWSCF v.5.0.2 (svn rev. 10453) starts on 18Feb2017 at  5:35:18 

     This program is part of the open-source Quantum ESPRESSO suite
     for quantum simulation of materials; please cite
         "P. Giannozzi et al., J. Phys.:Condens. Matter 21 395502 (2009);
          URL http://www.quantum-espresso.org", 
     in publications or presentations arising from this work. More details at
     http://www.quantum-espresso.org/quote

     Parallel version (MPI), running on    12 processors
     R & G space division:  proc/nbgrp/npool/nimage =      12
     Reading input from pw.inp
     Message from routine read_cards :
     DEPRECATED: no units specified in CELL_PARAMETERS card

     Current dimensions of program PWSCF are:
     Max number of different atomic species (ntypx) = 10
     Max number of k-points (npk) =  40000
     Max angular momentum in pseudopotentials (lmaxx) =  3
     Presently no symmetry can be used with electric field


     IMPORTANT: XC functional enforced from input :
     Exchange-correlation      = PBE ( 1  4  3  4 0)
     Any further DFT definition will be discarded
     Please, verify this is what you really want


     Subspace diagonalization in iterative solution of the eigenvalue problem:
     a serial algorithm will be used

 
     Parallelization info
     --------------------
     sticks:   dense  smooth     PW     G-vecs:    dense   smooth      PW
     Min          81      39     12                 9513     3338     586
     Max          82      40     16                 9522     3378     597
     Sum         981     479    161               114205    40347    7083
 


     bravais-lattice index     =            0
     lattice parameter (alat)  =       1.8897  a.u.
     unit-cell volume          =    1872.8848 (a.u.)^3
     number of atoms/cell      =            8
     number of atomic types    =            3
     number of electrons       =        84.00
     number of Kohn-Sham states=           72
     kinetic-energy cutoff     =      29.3995  Ry
     charge density cutoff     =     235.1957  Ry
     convergence threshold     =      1.0E-06
     mixing beta               =       0.1000
     number of iterations used =           15  plain     mixing
     Exchange-correlation      = PBE ( 1  4  3  4 0)
     nstep                     =           50


     celldm(1)=   1.889726  celldm(2)=   0.000000  celldm(3)=   0.000000
     celldm(4)=   0.000000  celldm(5)=   0.000000  celldm(6)=   0.000000

     crystal axes: (cart. coord. in units of alat)
               a(1) = (   5.784133   0.000000   0.000000 )  
               a(2) = (   1.446033   2.504603   0.000000 )  
               a(3) = (   0.000000   0.000000  19.157428 )  

     reciprocal axes: (cart. coord. in units 2 pi/alat)
               b(1) = (  0.172887 -0.099816  0.000000 )  
               b(2) = (  0.000000  0.399265  0.000000 )  
               b(3) = (  0.000000  0.000000  0.052199 )  


     PseudoPot. # 1 for Ag read from file:
     /nfs/slac/g/suncatfs/aidank/scripts/gbrv/Ag.UPF
     MD5 check sum: d66d668201baa78d5eb5b04ef7011058
     Pseudo is Ultrasoft + core correction, Zval = 19.0
     Generated by new atomic code, or converted to UPF format
     Using radial grid of  887 points,  6 beta functions with: 
                l(1) =   0
                l(2) =   0
                l(3) =   1
                l(4) =   1
                l(5) =   2
                l(6) =   2
     Q(r) pseudized with  6 coefficients,  rinner =    1.300   1.300   1.300
                                                       1.300   1.300

     PseudoPot. # 2 for N  read from file:
     /nfs/slac/g/suncatfs/aidank/scripts/gbrv/N.UPF
     MD5 check sum: 95339753478d7afb44899504a8723017
     Pseudo is Ultrasoft + core correction, Zval =  5.0
     Generated by new atomic code, or converted to UPF format
     Using radial grid of  729 points,  4 beta functions with: 
                l(1) =   0
                l(2) =   0
                l(3) =   1
                l(4) =   1
     Q(r) pseudized with  8 coefficients,  rinner =    0.900   0.900   0.900


     PseudoPot. # 3 for H  read from file:
     /nfs/slac/g/suncatfs/aidank/scripts/gbrv/H.UPF
     MD5 check sum: 761ae9a214b05c3daf00ab9f6b793d6f
     Pseudo is Ultrasoft, Zval =  1.0
     Generated by new atomic code, or converted to UPF format
     Using radial grid of  615 points,  2 beta functions with: 
                l(1) =   0
                l(2) =   0
     Q(r) pseudized with  8 coefficients,  rinner =    0.700

     atomic species   valence    mass     pseudopotential
        Ag1           19.00   107.86800     Ag( 1.00)
        N1             5.00    14.00670     N ( 1.00)
        H1             1.00     1.00794     H ( 1.00)

     No symmetry found



   Cartesian axes

     site n.     atom                  positions (alat units)
         1           Ag1 tau(   1) = (   5.4594866   0.7084522   7.1205000  )
         2           Ag1 tau(   2) = (   2.5674199   0.7084522   7.1205000  )
         3           Ag1 tau(   3) = (   1.1213865   1.5433200   9.4818626  )
         4           Ag1 tau(   4) = (   4.0134533   1.5433200   9.4818626  )
         5           N1  tau(   5) = (   4.3870115   1.6016124  11.5089882  )
         6           H1  tau(   6) = (   4.3068349   1.8079815  12.4763049  )
         7           H1  tau(   7) = (   4.1049897   0.6333721  11.4485173  )
         8           H1  tau(   8) = (   3.0383178   2.1715255  11.1490623  )

     number of k points=     6  Fermi-Dirac smearing, width (Ry)=  0.0073
                       cart. coord. in units 2pi/alat
        k(    1) = (   0.0000000   0.0000000   0.0000000), wk =   0.2500000
        k(    2) = (   0.0000000   0.0998162   0.0000000), wk =   0.5000000
        k(    3) = (   0.0000000  -0.1996324   0.0000000), wk =   0.2500000
        k(    4) = (  -0.0864434   0.0499081   0.0000000), wk =   0.2500000
        k(    5) = (  -0.0864434   0.1497243   0.0000000), wk =   0.5000000
        k(    6) = (  -0.0864434  -0.1497243   0.0000000), wk =   0.2500000

     Dense  grid:   114205 G-vectors     FFT dimensions: (  54,  27, 180)

     Smooth grid:    40347 G-vectors     FFT dimensions: (  40,  20, 125)

     Largest allocated arrays     est. size (Mb)     dimensions
        Kohn-Sham Wavefunctions         0.49 Mb     (     450,   72)
        NL pseudopotentials             0.59 Mb     (     450,   86)
        Each V/rho on FFT grid          0.33 Mb     (   21870)
        Each G-vector array             0.07 Mb     (    9513)
        G-vector shells                 0.03 Mb     (    3999)
     Largest temporary arrays     est. size (Mb)     dimensions
        Auxiliary wavefunctions         1.98 Mb     (     450,  288)
        Each subspace H/S matrix        1.27 Mb     (     288,  288)
        Each <psi_i|beta_j> matrix      0.09 Mb     (      86,   72)
        Arrays for rho mixing           5.01 Mb     (   21870,   15)

     Initial potential from superposition of free atoms
     Check: negative starting charge=   -0.002381

     starting charge   81.99978, renormalised to   84.00000

     negative rho (up, down):  2.439E-03 0.000E+00
 
     Adding external electric field

     Computed dipole along edir(3) : 
        Dipole               -1.2079 Ry au,         -3.0702 Debye
        Dipole field         -0.0081 Ry au
 
        Potential amp.        0.5721 Ry
        Total length         35.2972 bohr
 
     Starting wfc are   59 randomized atomic wfcs +   13 random wfc

     total cpu time spent up to now is        1.1 secs

     per-process dynamical memory:    18.4 Mb

     Self-consistent Calculation

     iteration #  1     ecut=    29.40 Ry     beta=0.10
     Davidson diagonalization with overlap
     ethr =  1.00E-02,  avg # of iterations =  7.0

     negative rho (up, down):  1.076E-03 0.000E+00
 
     Adding external electric field

     Computed dipole along edir(3) : 
        Dipole                1.4975 Ry au,          3.8063 Debye
        Dipole field          0.0100 Ry au
 
        Potential amp.       -0.7093 Ry
        Total length         35.2972 bohr
 

     total cpu time spent up to now is        4.9 secs

     total energy              =   -1203.71124522 Ry
     Harris-Foulkes estimate   =   -1207.54651326 Ry
     estimated scf accuracy    <      21.85273121 Ry

     iteration #  2     ecut=    29.40 Ry     beta=0.10
     Davidson diagonalization with overlap
     ethr =  1.00E-02,  avg # of iterations =  3.7

     negative rho (up, down):  6.687E-04 0.000E+00
 
     Adding external electric field

     Computed dipole along edir(3) : 
        Dipole                0.0328 Ry au,          0.0835 Debye
        Dipole field          0.0002 Ry au
 
        Potential amp.       -0.0156 Ry
        Total length         35.2972 bohr
 

     total cpu time spent up to now is        6.8 secs

     total energy              =   -1204.70034733 Ry
     Harris-Foulkes estimate   =   -1207.39056341 Ry
     estimated scf accuracy    <      32.34492945 Ry

     iteration #  3     ecut=    29.40 Ry     beta=0.10
     Davidson diagonalization with overlap
     ethr =  1.00E-02,  avg # of iterations =  2.5

     negative rho (up, down):  7.077E-04 0.000E+00
 
     Adding external electric field

     Computed dipole along edir(3) : 
        Dipole                0.1254 Ry au,          0.3187 Debye
        Dipole field          0.0008 Ry au
 
        Potential amp.       -0.0594 Ry
        Total length         35.2972 bohr
 

     total cpu time spent up to now is        8.4 secs

     total energy              =   -1205.94714577 Ry
     Harris-Foulkes estimate   =   -1206.16218532 Ry
     estimated scf accuracy    <       1.23036281 Ry

     iteration #  4     ecut=    29.40 Ry     beta=0.10
     Davidson diagonalization with overlap
     ethr =  1.46E-03,  avg # of iterations =  2.7

     negative rho (up, down):  8.315E-04 0.000E+00
 
     Adding external electric field

     Computed dipole along edir(3) : 
        Dipole                0.3126 Ry au,          0.7945 Debye
        Dipole field          0.0021 Ry au
 
        Potential amp.       -0.1481 Ry
        Total length         35.2972 bohr
 

     total cpu time spent up to now is       10.0 secs

     total energy              =   -1205.74465791 Ry
     Harris-Foulkes estimate   =   -1205.97443149 Ry
     estimated scf accuracy    <       0.54476825 Ry

     iteration #  5     ecut=    29.40 Ry     beta=0.10
     Davidson diagonalization with overlap
     ethr =  6.49E-04,  avg # of iterations =  4.2

     negative rho (up, down):  1.039E-03 0.000E+00
 
     Adding external electric field

     Computed dipole along edir(3) : 
        Dipole                0.3198 Ry au,          0.8129 Debye
        Dipole field          0.0021 Ry au
 
        Potential amp.       -0.1515 Ry
        Total length         35.2972 bohr
 

     total cpu time spent up to now is       12.0 secs

     total energy              =   -1205.82246385 Ry
     Harris-Foulkes estimate   =   -1205.83189166 Ry
     estimated scf accuracy    <       0.03452455 Ry

     iteration #  6     ecut=    29.40 Ry     beta=0.10
     Davidson diagonalization with overlap
     ethr =  4.11E-05,  avg # of iterations =  5.3

     negative rho (up, down):  1.200E-03 0.000E+00
 
     Adding external electric field

     Computed dipole along edir(3) : 
        Dipole                0.3408 Ry au,          0.8663 Debye
        Dipole field          0.0023 Ry au
 
        Potential amp.       -0.1614 Ry
        Total length         35.2972 bohr
 

     total cpu time spent up to now is       14.1 secs

     total energy              =   -1205.82277324 Ry
     Harris-Foulkes estimate   =   -1205.82546297 Ry
     estimated scf accuracy    <       0.01544719 Ry

     iteration #  7     ecut=    29.40 Ry     beta=0.10
     Davidson diagonalization with overlap
     ethr =  1.84E-05,  avg # of iterations =  4.7

     negative rho (up, down):  1.381E-03 0.000E+00
 
     Adding external electric field

     Computed dipole along edir(3) : 
        Dipole                0.3257 Ry au,          0.8279 Debye
        Dipole field          0.0022 Ry au
 
        Potential amp.       -0.1543 Ry
        Total length         35.2972 bohr
 

     total cpu time spent up to now is       16.0 secs

     total energy              =   -1205.82278777 Ry
     Harris-Foulkes estimate   =   -1205.82355208 Ry
     estimated scf accuracy    <       0.00483029 Ry

     iteration #  8     ecut=    29.40 Ry     beta=0.10
     Davidson diagonalization with overlap
     ethr =  5.75E-06,  avg # of iterations =  4.2

     negative rho (up, down):  1.619E-03 0.000E+00
 
     Adding external electric field

     Computed dipole along edir(3) : 
        Dipole                0.2790 Ry au,          0.7092 Debye
        Dipole field          0.0019 Ry au
 
        Potential amp.       -0.1322 Ry
        Total length         35.2972 bohr
 

     total cpu time spent up to now is       17.8 secs

     total energy              =   -1205.82254449 Ry
     Harris-Foulkes estimate   =   -1205.82317033 Ry
     estimated scf accuracy    <       0.00218322 Ry

     iteration #  9     ecut=    29.40 Ry     beta=0.10
     Davidson diagonalization with overlap
     ethr =  2.60E-06,  avg # of iterations =  3.3

     negative rho (up, down):  1.859E-03 0.000E+00
 
     Adding external electric field

     Computed dipole along edir(3) : 
        Dipole                0.2717 Ry au,          0.6905 Debye
        Dipole field          0.0018 Ry au
 
        Potential amp.       -0.1287 Ry
        Total length         35.2972 bohr
 

     total cpu time spent up to now is       19.6 secs

     total energy              =   -1205.82272014 Ry
     Harris-Foulkes estimate   =   -1205.82286031 Ry
     estimated scf accuracy    <       0.00053459 Ry

     iteration # 10     ecut=    29.40 Ry     beta=0.10
     Davidson diagonalization with overlap
     ethr =  6.36E-07,  avg # of iterations =  2.7

     negative rho (up, down):  1.910E-03 0.000E+00
 
     Adding external electric field

     Computed dipole along edir(3) : 
        Dipole                0.2682 Ry au,          0.6816 Debye
        Dipole field          0.0018 Ry au
 
        Potential amp.       -0.1270 Ry
        Total length         35.2972 bohr
 

     total cpu time spent up to now is       21.2 secs

     total energy              =   -1205.82279581 Ry
     Harris-Foulkes estimate   =   -1205.82280562 Ry
     estimated scf accuracy    <       0.00004283 Ry

     iteration # 11     ecut=    29.40 Ry     beta=0.10
     Davidson diagonalization with overlap
     ethr =  5.10E-08,  avg # of iterations =  1.0

     negative rho (up, down):  2.076E-03 0.000E+00
 
     Adding external electric field

     Computed dipole along edir(3) : 
        Dipole                0.2641 Ry au,          0.6712 Debye
        Dipole field          0.0018 Ry au
 
        Potential amp.       -0.1251 Ry
        Total length         35.2972 bohr
 

     total cpu time spent up to now is       22.5 secs

     total energy              =   -1205.82280048 Ry
     Harris-Foulkes estimate   =   -1205.82281203 Ry
     estimated scf accuracy    <       0.00002383 Ry

     iteration # 12     ecut=    29.40 Ry     beta=0.10
     Davidson diagonalization with overlap
     ethr =  2.84E-08,  avg # of iterations =  2.0

     negative rho (up, down):  2.142E-03 0.000E+00
 
     Adding external electric field

     Computed dipole along edir(3) : 
        Dipole                0.2636 Ry au,          0.6700 Debye
        Dipole field          0.0018 Ry au
 
        Potential amp.       -0.1249 Ry
        Total length         35.2972 bohr
 

     total cpu time spent up to now is       23.9 secs

     total energy              =   -1205.82280549 Ry
     Harris-Foulkes estimate   =   -1205.82280453 Ry
     estimated scf accuracy    <       0.00000414 Ry

     iteration # 13     ecut=    29.40 Ry     beta=0.10
     Davidson diagonalization with overlap
     ethr =  4.93E-09,  avg # of iterations =  1.0

     negative rho (up, down):  2.187E-03 0.000E+00
 
     Adding external electric field

     Computed dipole along edir(3) : 
        Dipole                0.2626 Ry au,          0.6674 Debye
        Dipole field          0.0018 Ry au
 
        Potential amp.       -0.1244 Ry
        Total length         35.2972 bohr
 

     total cpu time spent up to now is       25.3 secs

     total energy              =   -1205.82280731 Ry
     Harris-Foulkes estimate   =   -1205.82280937 Ry
     estimated scf accuracy    <       0.00000251 Ry

     iteration # 14     ecut=    29.40 Ry     beta=0.10
     Davidson diagonalization with overlap
     ethr =  2.98E-09,  avg # of iterations =  2.0

     negative rho (up, down):  2.218E-03 0.000E+00
 
     Adding external electric field

     Computed dipole along edir(3) : 
        Dipole                0.2632 Ry au,          0.6690 Debye
        Dipole field          0.0018 Ry au
 
        Potential amp.       -0.1247 Ry
        Total length         35.2972 bohr
 

     total cpu time spent up to now is       26.7 secs

     End of self-consistent calculation

          k = 0.0000 0.0000 0.0000 (  5071 PWs)   bands (ev):

   -90.2950 -90.0114 -89.9613 -89.9438 -53.7931 -53.7706 -53.7388 -53.5399
   -53.4537 -53.4507 -53.4242 -53.4054 -53.3890 -53.3849 -53.3694 -53.3341
   -16.0186  -6.7217  -5.2772  -4.6813  -4.3085  -4.1945  -3.9374  -3.4665
    -3.0332  -2.8244  -2.7911  -2.6742  -2.6453  -2.5847  -2.4932  -1.9546
    -1.7854  -1.6194  -1.5780  -1.3798  -1.3036  -1.2501  -1.0505  -0.9068
    -0.5169   0.7682   1.8845   2.7697   3.5307   4.2699   5.2402   5.7536
     6.6293   6.6453   7.4848   8.1496   8.9434   9.3670   9.4219   9.6699
    10.2588  10.9710  11.1019  11.3672  11.5809  12.3840  12.6292  12.8110
    13.2174  13.8464  13.9794  14.5098  15.0395  15.1199  15.8421  16.3880

          k = 0.0000 0.0998 0.0000 (  5031 PWs)   bands (ev):

   -90.2921 -90.0082 -89.9583 -89.9415 -53.7983 -53.7722 -53.7587 -53.5209
   -53.4926 -53.4560 -53.4309 -53.4226 -53.4147 -53.4073 -53.3798 -53.3342
   -15.6253  -6.7602  -5.1855  -4.0929  -3.9165  -3.6069  -3.4992  -3.2449
    -3.2009  -3.1035  -2.7618  -2.6562  -2.5185  -2.3250  -2.3101  -2.2108
    -2.0981  -2.0022  -1.8462  -1.7067  -1.5900  -1.3558  -1.2235  -0.9596
    -0.7668   1.7207   2.2336   3.6772   4.9697   5.7789   6.5830   6.8313
     7.8951   8.1433   8.5011   8.7071   9.1618   9.2984   9.6092  10.6828
    10.7254  10.8758  11.1709  11.4531  12.0772  12.3589  12.4425  13.1742
    13.3788  13.6436  14.0158  14.3706  14.7191  15.1336  15.2706  15.4645

          k = 0.0000-0.1996 0.0000 (  5048 PWs)   bands (ev):

   -90.2892 -90.0053 -89.9553 -89.9390 -53.8321 -53.7781 -53.7558 -53.5423
   -53.5250 -53.4561 -53.4535 -53.4403 -53.4204 -53.4088 -53.3723 -53.3384
   -15.1599  -7.2889  -5.3564  -4.3932  -4.2497  -4.1760  -3.9212  -3.7918
    -3.6501  -3.2005  -2.8033  -2.6154  -2.3487  -2.0940  -1.7007  -1.4705
    -1.4002  -1.3754  -1.1470  -0.9880  -0.9817  -0.9044  -0.8841  -0.6085
     2.4959   2.6309   3.3567   3.4907   5.2760   5.8068   6.5554   6.7911
     8.0229   8.5200   8.8114   9.3630   9.8308  10.2053  10.6517  10.8821
    10.9514  11.0366  11.1233  11.2516  11.5285  12.2611  12.3646  12.4868
    12.5835  12.7615  13.0146  13.1703  13.5832  13.9474  14.2425  14.4424

          k =-0.0864 0.0499 0.0000 (  5024 PWs)   bands (ev):

   -90.2949 -90.0109 -89.9615 -89.9442 -53.7921 -53.7602 -53.7373 -53.5061
   -53.4636 -53.4494 -53.4423 -53.4199 -53.3906 -53.3883 -53.3691 -53.3330
   -16.0088  -6.6605  -5.3338  -4.0332  -3.8167  -3.6676  -3.5552  -3.2120
    -3.1061  -3.0018  -2.7886  -2.7348  -2.4345  -2.2699  -2.2319  -2.1500
    -2.0689  -2.0108  -1.9430  -1.8354  -1.7202  -1.5946  -1.3236  -1.2075
    -1.0493  -0.3481   1.4730   2.4608   4.0332   5.1017   5.6228   6.1307
     6.5789   6.7404   7.0372   7.9877   8.3129   8.4295   8.9552   9.4824
    10.5303  10.9044  11.1318  12.1740  12.3620  12.5952  13.8242  14.0944
    14.4832  14.9127  15.6229  15.9031  16.1973  16.5117  16.6187  17.0431

          k =-0.0864 0.1497 0.0000 (  5031 PWs)   bands (ev):

   -90.2921 -90.0082 -89.9583 -89.9415 -53.7982 -53.7747 -53.7562 -53.5205
   -53.4923 -53.4559 -53.4348 -53.4211 -53.4153 -53.4052 -53.3799 -53.3342
   -15.6254  -6.7616  -5.1715  -4.0754  -3.8662  -3.5785  -3.5204  -3.3614
    -3.2179  -3.0571  -2.7657  -2.6645  -2.4982  -2.3624  -2.2715  -2.2245
    -2.1371  -1.9922  -1.9053  -1.7151  -1.6382  -1.3185  -1.2532  -0.9736
    -0.6067   1.8262   2.1698   3.7532   4.9223   5.7423   6.5739   6.7833
     7.7538   8.1108   8.4821   8.7013   9.1120   9.3334   9.5944  10.5840
    10.7054  11.0913  11.1911  11.6211  12.0723  12.3315  12.4493  13.2625
    13.4788  13.7377  14.0261  14.3958  14.7452  15.1636  15.3025  15.4329

          k =-0.0864-0.1497 0.0000 (  5038 PWs)   bands (ev):

   -90.2892 -90.0053 -89.9553 -89.9390 -53.8298 -53.7773 -53.7504 -53.5311
   -53.4988 -53.4725 -53.4602 -53.4537 -53.4323 -53.4096 -53.3711 -53.3380
   -15.1659  -7.2940  -5.3184  -3.9886  -3.5959  -3.5136  -3.3862  -3.3139
    -3.2878  -3.1415  -2.7728  -2.7292  -2.5656  -2.5107  -2.3713  -2.2995
    -2.2035  -1.9783  -1.6491  -1.4992  -1.2782  -1.0750  -0.9011  -0.6207
     1.9352   2.1358   3.9544   4.5041   5.7778   7.5671   8.0578   8.3373
     8.3591   8.5102   8.8362   9.2016   9.4612   9.6219   9.7261   9.9608
    10.6899  10.8909  11.0531  11.4738  11.8239  12.0085  12.3841  12.4688
    12.9512  13.4543  13.6413  13.6668  14.1105  14.3970  14.6709  14.7290

     the Fermi energy is     2.0923 ev

!    total energy              =   -1205.82281551 Ry
     Harris-Foulkes estimate   =   -1205.82280561 Ry
     estimated scf accuracy    <       0.00000055 Ry

     The total energy is the sum of the following terms:

     one-electron contribution =   -6024.18945638 Ry
     hartree contribution      =    3010.34339963 Ry
     xc contribution           =    -123.32773524 Ry
     ewald contribution        =    1931.35910492 Ry
     electric field correction =       0.00046479 Ry
     smearing contrib. (-TS)   =      -0.00859323 Ry

     convergence has been achieved in  14 iterations

     Forces acting on atoms (Ry/au):


     negative rho (up, down):  2.218E-03 0.000E+00
     atom    1 type  1   force =    -0.00206607    0.00194219   -0.01375748
     atom    2 type  1   force =     0.00259607   -0.00150270   -0.01556468
     atom    3 type  1   force =     0.00482564   -0.00633714    0.02051052
     atom    4 type  1   force =    -0.01331005    0.01723914   -0.10884233
     atom    5 type  2   force =    -0.06283902    0.04129424    0.01284462
     atom    6 type  3   force =     0.00228594    0.02814693    0.07445883
     atom    7 type  3   force =    -0.00270343   -0.05338669    0.02177017
     atom    8 type  3   force =     0.07121092   -0.02739597    0.00858034

     Total force =     0.186120     Total SCF correction =     0.006926
 !ASE
  python dir          : /nfs/slac/g/suncatfs/aidank/software/ase-espresso/lib/python2.7/site-packages/espresso
  espresso dir        : /nfs/slac/g/suncatfs/aidank/software/espresso-qeforge/bin
  pseudo dir          : /nfs/slac/g/suncatfs/aidank/scripts/gbrv/
  ase-espresso py git : c91b4c2-git


 
     init_run     :      1.01s CPU      1.03s WALL (       1 calls)
     electrons    :     25.47s CPU     25.63s WALL (       1 calls)
     forces       :      0.61s CPU      0.61s WALL (       1 calls)

     Called by init_run:
     wfcinit      :      0.33s CPU      0.33s WALL (       1 calls)
     potinit      :      0.14s CPU      0.14s WALL (       1 calls)

     Called by electrons:
     c_bands      :     19.98s CPU     20.10s WALL (      14 calls)
     sum_band     :      3.47s CPU      3.49s WALL (      14 calls)
     v_of_rho     :      0.36s CPU      0.37s WALL (      15 calls)
     newd         :      1.63s CPU      1.63s WALL (      15 calls)
     mix_rho      :      0.10s CPU      0.11s WALL (      14 calls)

     Called by c_bands:
     init_us_2    :      0.10s CPU      0.10s WALL (     180 calls)
     cegterg      :     19.42s CPU     19.54s WALL (      84 calls)

     Called by *egterg:
     h_psi        :      8.15s CPU      8.24s WALL (     367 calls)
     s_psi        :      0.54s CPU      0.55s WALL (     367 calls)
     g_psi        :      0.09s CPU      0.08s WALL (     277 calls)
     cdiaghg      :      6.68s CPU      6.69s WALL (     361 calls)

     Called by h_psi:
     add_vuspsi   :      0.55s CPU      0.56s WALL (     367 calls)

     General routines
     calbec       :      1.03s CPU      1.01s WALL (     457 calls)
     fft          :      0.37s CPU      0.36s WALL (     247 calls)
     ffts         :      0.00s CPU      0.01s WALL (      29 calls)
     fftw         :      6.74s CPU      6.81s WALL (   34732 calls)
     interpolate  :      0.05s CPU      0.05s WALL (      29 calls)
 
     Parallel routines
     fft_scatter  :      3.17s CPU      3.17s WALL (   35008 calls)
 
     PWSCF        :    27.17s CPU        27.54s WALL

 
   This run was terminated on:   5:35:46  18Feb2017            

=------------------------------------------------------------------------------=
   JOB DONE.
=------------------------------------------------------------------------------=
Job  /afs/slac/g/suncat/bin/suncat-tsmpirun -x LD_LIBRARY_PATH -wdir /scratch/qe259882_9C6wQ pw.x -in pw.inp

TID   HOST_NAME   COMMAND_LINE            STATUS            TERMINATION_TIME
===== ========== ================  =======================  ===================
00000 suncat1015 pw.x -in pw.inp   Done                     02/18/2017 05:35:46
00001 suncat1015 pw.x -in pw.inp   Done                     02/18/2017 05:35:46
00002 suncat1015 pw.x -in pw.inp   Done                     02/18/2017 05:35:46
00003 suncat1015 pw.x -in pw.inp   Done                     02/18/2017 05:35:46
00004 suncat1015 pw.x -in pw.inp   Done                     02/18/2017 05:35:46
00005 suncat1015 pw.x -in pw.inp   Done                     02/18/2017 05:35:46
00006 suncat1015 pw.x -in pw.inp   Done                     02/18/2017 05:35:46
00007 suncat1015 pw.x -in pw.inp   Done                     02/18/2017 05:35:46
00008 suncat1015 pw.x -in pw.inp   Done                     02/18/2017 05:35:46
00009 suncat1015 pw.x -in pw.inp   Done                     02/18/2017 05:35:46
00010 suncat1015 pw.x -in pw.inp   Done                     02/18/2017 05:35:46
00011 suncat1015 pw.x -in pw.inp   Done                     02/18/2017 05:35:46

     Program PWSCF v.5.0.2 (svn rev. 10453) starts on 18Feb2017 at  5:35:51 

     This program is part of the open-source Quantum ESPRESSO suite
     for quantum simulation of materials; please cite
         "P. Giannozzi et al., J. Phys.:Condens. Matter 21 395502 (2009);
          URL http://www.quantum-espresso.org", 
     in publications or presentations arising from this work. More details at
     http://www.quantum-espresso.org/quote

     Parallel version (MPI), running on    12 processors
     R & G space division:  proc/nbgrp/npool/nimage =      12
     Reading input from pw.inp
     Message from routine read_cards :
     DEPRECATED: no units specified in CELL_PARAMETERS card

     Current dimensions of program PWSCF are:
     Max number of different atomic species (ntypx) = 10
     Max number of k-points (npk) =  40000
     Max angular momentum in pseudopotentials (lmaxx) =  3
     Presently no symmetry can be used with electric field


     IMPORTANT: XC functional enforced from input :
     Exchange-correlation      = PBE ( 1  4  3  4 0)
     Any further DFT definition will be discarded
     Please, verify this is what you really want


     Subspace diagonalization in iterative solution of the eigenvalue problem:
     a serial algorithm will be used

 
     Parallelization info
     --------------------
     sticks:   dense  smooth     PW     G-vecs:    dense   smooth      PW
     Min          81      39     12                 9513     3338     586
     Max          82      40     16                 9522     3378     597
     Sum         981     479    161               114205    40347    7083
 


     bravais-lattice index     =            0
     lattice parameter (alat)  =       1.8897  a.u.
     unit-cell volume          =    1872.8848 (a.u.)^3
     number of atoms/cell      =            8
     number of atomic types    =            3
     number of electrons       =        84.00
     number of Kohn-Sham states=           72
     kinetic-energy cutoff     =      29.3995  Ry
     charge density cutoff     =     235.1957  Ry
     convergence threshold     =      1.0E-06
     mixing beta               =       0.1000
     number of iterations used =           15  plain     mixing
     Exchange-correlation      = PBE ( 1  4  3  4 0)
     nstep                     =           50


     celldm(1)=   1.889726  celldm(2)=   0.000000  celldm(3)=   0.000000
     celldm(4)=   0.000000  celldm(5)=   0.000000  celldm(6)=   0.000000

     crystal axes: (cart. coord. in units of alat)
               a(1) = (   5.784133   0.000000   0.000000 )  
               a(2) = (   1.446033   2.504603   0.000000 )  
               a(3) = (   0.000000   0.000000  19.157428 )  

     reciprocal axes: (cart. coord. in units 2 pi/alat)
               b(1) = (  0.172887 -0.099816  0.000000 )  
               b(2) = (  0.000000  0.399265  0.000000 )  
               b(3) = (  0.000000  0.000000  0.052199 )  


     PseudoPot. # 1 for Ag read from file:
     /nfs/slac/g/suncatfs/aidank/scripts/gbrv/Ag.UPF
     MD5 check sum: d66d668201baa78d5eb5b04ef7011058
     Pseudo is Ultrasoft + core correction, Zval = 19.0
     Generated by new atomic code, or converted to UPF format
     Using radial grid of  887 points,  6 beta functions with: 
                l(1) =   0
                l(2) =   0
                l(3) =   1
                l(4) =   1
                l(5) =   2
                l(6) =   2
     Q(r) pseudized with  6 coefficients,  rinner =    1.300   1.300   1.300
                                                       1.300   1.300

     PseudoPot. # 2 for N  read from file:
     /nfs/slac/g/suncatfs/aidank/scripts/gbrv/N.UPF
     MD5 check sum: 95339753478d7afb44899504a8723017
     Pseudo is Ultrasoft + core correction, Zval =  5.0
     Generated by new atomic code, or converted to UPF format
     Using radial grid of  729 points,  4 beta functions with: 
                l(1) =   0
                l(2) =   0
                l(3) =   1
                l(4) =   1
     Q(r) pseudized with  8 coefficients,  rinner =    0.900   0.900   0.900


     PseudoPot. # 3 for H  read from file:
     /nfs/slac/g/suncatfs/aidank/scripts/gbrv/H.UPF
     MD5 check sum: 761ae9a214b05c3daf00ab9f6b793d6f
     Pseudo is Ultrasoft, Zval =  1.0
     Generated by new atomic code, or converted to UPF format
     Using radial grid of  615 points,  2 beta functions with: 
                l(1) =   0
                l(2) =   0
     Q(r) pseudized with  8 coefficients,  rinner =    0.700

     atomic species   valence    mass     pseudopotential
        Ag1           19.00   107.86800     Ag( 1.00)
        N1             5.00    14.00670     N ( 1.00)
        H1             1.00     1.00794     H ( 1.00)

     No symmetry found



   Cartesian axes

     site n.     atom                  positions (alat units)
         1           Ag1 tau(   1) = (   5.4594866   0.7084522   7.1205000  )
         2           Ag1 tau(   2) = (   2.5674199   0.7084522   7.1205000  )
         3           Ag1 tau(   3) = (   1.1213865   1.5433200   9.4818626  )
         4           Ag1 tau(   4) = (   4.0134533   1.5433200   9.4818626  )
         5           N1  tau(   5) = (   4.5738117   1.6386688  11.4454468  )
         6           H1  tau(   6) = (   4.4037061   1.9483377  12.3816948  )
         7           H1  tau(   7) = (   4.2906186   0.6715254  11.4819580  )
         8           H1  tau(   8) = (   2.9616651   2.1981712  11.0034076  )

     number of k points=     6  Fermi-Dirac smearing, width (Ry)=  0.0073
                       cart. coord. in units 2pi/alat
        k(    1) = (   0.0000000   0.0000000   0.0000000), wk =   0.2500000
        k(    2) = (   0.0000000   0.0998162   0.0000000), wk =   0.5000000
        k(    3) = (   0.0000000  -0.1996324   0.0000000), wk =   0.2500000
        k(    4) = (  -0.0864434   0.0499081   0.0000000), wk =   0.2500000
        k(    5) = (  -0.0864434   0.1497243   0.0000000), wk =   0.5000000
        k(    6) = (  -0.0864434  -0.1497243   0.0000000), wk =   0.2500000

     Dense  grid:   114205 G-vectors     FFT dimensions: (  54,  27, 180)

     Smooth grid:    40347 G-vectors     FFT dimensions: (  40,  20, 125)

     Largest allocated arrays     est. size (Mb)     dimensions
        Kohn-Sham Wavefunctions         0.49 Mb     (     450,   72)
        NL pseudopotentials             0.59 Mb     (     450,   86)
        Each V/rho on FFT grid          0.33 Mb     (   21870)
        Each G-vector array             0.07 Mb     (    9513)
        G-vector shells                 0.03 Mb     (    3999)
     Largest temporary arrays     est. size (Mb)     dimensions
        Auxiliary wavefunctions         1.98 Mb     (     450,  288)
        Each subspace H/S matrix        1.27 Mb     (     288,  288)
        Each <psi_i|beta_j> matrix      0.09 Mb     (      86,   72)
        Arrays for rho mixing           5.01 Mb     (   21870,   15)

     Initial potential from superposition of free atoms
     Check: negative starting charge=   -0.002418

     starting charge   81.99978, renormalised to   84.00000

     negative rho (up, down):  2.477E-03 0.000E+00
 
     Adding external electric field

     Computed dipole along edir(3) : 
        Dipole               -1.1838 Ry au,         -3.0088 Debye
        Dipole field         -0.0079 Ry au
 
        Potential amp.        0.5607 Ry
        Total length         35.2972 bohr
 
     Starting wfc are   59 randomized atomic wfcs +   13 random wfc

     total cpu time spent up to now is        1.0 secs

     per-process dynamical memory:    18.4 Mb

     Self-consistent Calculation

     iteration #  1     ecut=    29.40 Ry     beta=0.10
     Davidson diagonalization with overlap
     ethr =  1.00E-02,  avg # of iterations =  7.2

     negative rho (up, down):  1.097E-03 0.000E+00
 
     Adding external electric field

     Computed dipole along edir(3) : 
        Dipole                1.3568 Ry au,          3.4487 Debye
        Dipole field          0.0091 Ry au
 
        Potential amp.       -0.6427 Ry
        Total length         35.2972 bohr
 

     total cpu time spent up to now is        5.0 secs

     total energy              =   -1203.78977152 Ry
     Harris-Foulkes estimate   =   -1207.57076334 Ry
     estimated scf accuracy    <      21.57337112 Ry

     iteration #  2     ecut=    29.40 Ry     beta=0.10
     Davidson diagonalization with overlap
     ethr =  1.00E-02,  avg # of iterations =  3.5

     negative rho (up, down):  7.926E-04 0.000E+00
 
     Adding external electric field

     Computed dipole along edir(3) : 
        Dipole                0.0111 Ry au,          0.0281 Debye
        Dipole field          0.0001 Ry au
 
        Potential amp.       -0.0052 Ry
        Total length         35.2972 bohr
 

     total cpu time spent up to now is        6.8 secs

     total energy              =   -1205.07893461 Ry
     Harris-Foulkes estimate   =   -1207.26059695 Ry
     estimated scf accuracy    <      23.69862736 Ry

     iteration #  3     ecut=    29.40 Ry     beta=0.10
     Davidson diagonalization with overlap
     ethr =  1.00E-02,  avg # of iterations =  2.5

     negative rho (up, down):  8.442E-04 0.000E+00
 
     Adding external electric field

     Computed dipole along edir(3) : 
        Dipole                0.0215 Ry au,          0.0547 Debye
        Dipole field          0.0001 Ry au
 
        Potential amp.       -0.0102 Ry
        Total length         35.2972 bohr
 

     total cpu time spent up to now is        8.4 secs

     total energy              =   -1205.91116489 Ry
     Harris-Foulkes estimate   =   -1206.12947168 Ry
     estimated scf accuracy    <       1.17753587 Ry

     iteration #  4     ecut=    29.40 Ry     beta=0.10
     Davidson diagonalization with overlap
     ethr =  1.40E-03,  avg # of iterations =  2.5

     negative rho (up, down):  9.612E-04 0.000E+00
 
     Adding external electric field

     Computed dipole along edir(3) : 
        Dipole                0.2392 Ry au,          0.6080 Debye
        Dipole field          0.0016 Ry au
 
        Potential amp.       -0.1133 Ry
        Total length         35.2972 bohr
 

     total cpu time spent up to now is        9.9 secs

     total energy              =   -1205.72038259 Ry
     Harris-Foulkes estimate   =   -1205.94249630 Ry
     estimated scf accuracy    <       0.51479414 Ry

     iteration #  5     ecut=    29.40 Ry     beta=0.10
     Davidson diagonalization with overlap
     ethr =  6.13E-04,  avg # of iterations =  3.7

     negative rho (up, down):  9.992E-04 0.000E+00
 
     Adding external electric field

     Computed dipole along edir(3) : 
        Dipole                0.2062 Ry au,          0.5242 Debye
        Dipole field          0.0014 Ry au
 
        Potential amp.       -0.0977 Ry
        Total length         35.2972 bohr
 

     total cpu time spent up to now is       11.9 secs

     total energy              =   -1205.80868443 Ry
     Harris-Foulkes estimate   =   -1205.81211493 Ry
     estimated scf accuracy    <       0.04029261 Ry

     iteration #  6     ecut=    29.40 Ry     beta=0.10
     Davidson diagonalization with overlap
     ethr =  4.80E-05,  avg # of iterations =  4.2

     negative rho (up, down):  1.389E-03 0.000E+00
 
     Adding external electric field

     Computed dipole along edir(3) : 
        Dipole                0.2175 Ry au,          0.5527 Debye
        Dipole field          0.0015 Ry au
 
        Potential amp.       -0.1030 Ry
        Total length         35.2972 bohr
 

     total cpu time spent up to now is       13.6 secs

     total energy              =   -1205.80156668 Ry
     Harris-Foulkes estimate   =   -1205.80949459 Ry
     estimated scf accuracy    <       0.02306054 Ry

     iteration #  7     ecut=    29.40 Ry     beta=0.10
     Davidson diagonalization with overlap
     ethr =  2.75E-05,  avg # of iterations =  5.5

     negative rho (up, down):  1.458E-03 0.000E+00
 
     Adding external electric field

     Computed dipole along edir(3) : 
        Dipole                0.2224 Ry au,          0.5652 Debye
        Dipole field          0.0015 Ry au
 
        Potential amp.       -0.1053 Ry
        Total length         35.2972 bohr
 

     total cpu time spent up to now is       15.8 secs

     total energy              =   -1205.80331722 Ry
     Harris-Foulkes estimate   =   -1205.80398570 Ry
     estimated scf accuracy    <       0.00609843 Ry

     iteration #  8     ecut=    29.40 Ry     beta=0.10
     Davidson diagonalization with overlap
     ethr =  7.26E-06,  avg # of iterations =  3.8

     negative rho (up, down):  1.735E-03 0.000E+00
 
     Adding external electric field

     Computed dipole along edir(3) : 
        Dipole                0.1781 Ry au,          0.4528 Debye
        Dipole field          0.0012 Ry au
 
        Potential amp.       -0.0844 Ry
        Total length         35.2972 bohr
 

     total cpu time spent up to now is       17.5 secs

     total energy              =   -1205.80298385 Ry
     Harris-Foulkes estimate   =   -1205.80367683 Ry
     estimated scf accuracy    <       0.00237207 Ry

     iteration #  9     ecut=    29.40 Ry     beta=0.10
     Davidson diagonalization with overlap
     ethr =  2.82E-06,  avg # of iterations =  3.5

     negative rho (up, down):  1.945E-03 0.000E+00
 
     Adding external electric field

     Computed dipole along edir(3) : 
        Dipole                0.1622 Ry au,          0.4122 Debye
        Dipole field          0.0011 Ry au
 
        Potential amp.       -0.0768 Ry
        Total length         35.2972 bohr
 

     total cpu time spent up to now is       19.3 secs

     total energy              =   -1205.80324779 Ry
     Harris-Foulkes estimate   =   -1205.80333495 Ry
     estimated scf accuracy    <       0.00038782 Ry

     iteration # 10     ecut=    29.40 Ry     beta=0.10
     Davidson diagonalization with overlap
     ethr =  4.62E-07,  avg # of iterations =  2.8

     negative rho (up, down):  2.083E-03 0.000E+00
 
     Adding external electric field

     Computed dipole along edir(3) : 
        Dipole                0.1644 Ry au,          0.4180 Debye
        Dipole field          0.0011 Ry au
 
        Potential amp.       -0.0779 Ry
        Total length         35.2972 bohr
 

     total cpu time spent up to now is       20.9 secs

     total energy              =   -1205.80326086 Ry
     Harris-Foulkes estimate   =   -1205.80327724 Ry
     estimated scf accuracy    <       0.00020957 Ry

     iteration # 11     ecut=    29.40 Ry     beta=0.10
     Davidson diagonalization with overlap
     ethr =  2.49E-07,  avg # of iterations =  1.7

     negative rho (up, down):  2.221E-03 0.000E+00
 
     Adding external electric field

     Computed dipole along edir(3) : 
        Dipole                0.1623 Ry au,          0.4126 Debye
        Dipole field          0.0011 Ry au
 
        Potential amp.       -0.0769 Ry
        Total length         35.2972 bohr
 

     total cpu time spent up to now is       22.3 secs

     total energy              =   -1205.80327990 Ry
     Harris-Foulkes estimate   =   -1205.80328319 Ry
     estimated scf accuracy    <       0.00002249 Ry

     iteration # 12     ecut=    29.40 Ry     beta=0.10
     Davidson diagonalization with overlap
     ethr =  2.68E-08,  avg # of iterations =  2.0

     negative rho (up, down):  2.320E-03 0.000E+00
 
     Adding external electric field

     Computed dipole along edir(3) : 
        Dipole                0.1607 Ry au,          0.4084 Debye
        Dipole field          0.0011 Ry au
 
        Potential amp.       -0.0761 Ry
        Total length         35.2972 bohr
 

     total cpu time spent up to now is       23.7 secs

     total energy              =   -1205.80328436 Ry
     Harris-Foulkes estimate   =   -1205.80328603 Ry
     estimated scf accuracy    <       0.00001354 Ry

     iteration # 13     ecut=    29.40 Ry     beta=0.10
     Davidson diagonalization with overlap
     ethr =  1.61E-08,  avg # of iterations =  1.0

     negative rho (up, down):  2.344E-03 0.000E+00
 
     Adding external electric field

     Computed dipole along edir(3) : 
        Dipole                0.1601 Ry au,          0.4069 Debye
        Dipole field          0.0011 Ry au
 
        Potential amp.       -0.0758 Ry
        Total length         35.2972 bohr
 

     total cpu time spent up to now is       25.1 secs

     total energy              =   -1205.80328562 Ry
     Harris-Foulkes estimate   =   -1205.80328601 Ry
     estimated scf accuracy    <       0.00000255 Ry

     iteration # 14     ecut=    29.40 Ry     beta=0.10
     Davidson diagonalization with overlap
     ethr =  3.03E-09,  avg # of iterations =  2.0

     negative rho (up, down):  2.371E-03 0.000E+00
 
     Adding external electric field

     Computed dipole along edir(3) : 
        Dipole                0.1612 Ry au,          0.4097 Debye
        Dipole field          0.0011 Ry au
 
        Potential amp.       -0.0763 Ry
        Total length         35.2972 bohr
 

     total cpu time spent up to now is       26.5 secs

     End of self-consistent calculation

          k = 0.0000 0.0000 0.0000 (  5071 PWs)   bands (ev):

   -90.5143 -90.2474 -90.1849 -90.1299 -54.0210 -53.9882 -53.9275 -53.7726
   -53.6874 -53.6625 -53.6404 -53.6212 -53.6184 -53.5965 -53.5503 -53.5432
   -15.4549  -6.2035  -5.2949  -4.6004  -4.5199  -4.3822  -4.1608  -3.5310
    -3.1564  -3.0046  -2.9698  -2.8900  -2.8699  -2.7717  -2.6192  -2.1431
    -1.9874  -1.8472  -1.7733  -1.5421  -1.5074  -1.4563  -1.2294  -1.1321
    -0.2885   0.6887   1.4206   2.6567   3.4962   4.6030   5.3383   5.8270
     6.4444   6.6744   7.5762   8.0569   9.0983   9.3353   9.4935   9.9254
    10.5375  11.0322  11.1411  11.4284  11.6340  12.2696  12.6328  12.8256
    13.1989  13.8343  13.9716  14.5149  15.0810  15.1405  15.8251  16.5983

          k = 0.0000 0.0998 0.0000 (  5031 PWs)   bands (ev):

   -90.5114 -90.2442 -90.1824 -90.1272 -54.0163 -53.9811 -53.9669 -53.7544
   -53.7253 -53.6662 -53.6601 -53.6502 -53.6158 -53.6004 -53.5770 -53.5498
   -15.0434  -6.2507  -4.8346  -4.2709  -4.1021  -3.8077  -3.7050  -3.4417
    -3.3728  -3.2636  -2.9785  -2.8465  -2.7170  -2.5437  -2.4993  -2.3848
    -2.2889  -2.1867  -2.0357  -1.9200  -1.7654  -1.5518  -1.4078  -0.8824
    -0.6837   1.5305   2.1360   3.2302   4.9826   6.0336   6.5398   6.9635
     7.8961   8.1886   8.3977   8.7517   9.0680   9.4199   9.6981  10.6549
    10.6642  10.8919  11.1277  11.4838  12.0433  12.3472  12.4556  13.2824
    13.4801  13.6548  14.0900  14.4186  14.8793  15.0475  15.4244  15.5509

          k = 0.0000-0.1996 0.0000 (  5048 PWs)   bands (ev):

   -90.5086 -90.2412 -90.1796 -90.1244 -54.0158 -54.0090 -53.9760 -53.7760
   -53.7593 -53.6822 -53.6570 -53.6521 -53.6289 -53.6063 -53.5800 -53.5557
   -14.5512  -6.8907  -5.0437  -4.5958  -4.4326  -4.3728  -4.1260  -3.9240
    -3.7486  -3.4100  -2.9373  -2.7275  -2.5434  -2.1961  -1.9031  -1.7035
    -1.6084  -1.5859  -1.3234  -1.1860  -1.1304  -1.1071  -0.8663  -0.4466
     2.1184   2.4883   3.0195   3.3506   4.8019   5.9605   6.3212   6.5554
     8.0500   8.4118   8.9756   9.7802  10.1326  10.4554  10.7118  10.8782
    11.0644  11.1073  11.2502  11.2663  11.5146  12.2276  12.3499  12.4910
    12.5754  12.7033  13.0764  13.2429  13.5811  13.7929  14.2434  14.4532

          k =-0.0864 0.0499 0.0000 (  5024 PWs)   bands (ev):

   -90.5143 -90.2469 -90.1854 -90.1300 -54.0202 -53.9793 -53.9262 -53.7384
   -53.6829 -53.6770 -53.6599 -53.6267 -53.6243 -53.6009 -53.5487 -53.5429
   -15.4437  -6.1030  -5.0737  -4.2045  -3.9941  -3.8760  -3.7587  -3.4201
    -3.2548  -3.2108  -3.0002  -2.9083  -2.6345  -2.4721  -2.4274  -2.3686
    -2.2671  -2.2027  -2.1352  -2.0435  -1.9525  -1.7671  -1.5042  -1.4194
    -1.0555  -0.2741   1.4733   2.4165   3.5987   5.3019   5.9559   6.2197
     6.6688   6.8446   7.1816   7.8835   8.2872   8.5553   9.2006   9.7715
    10.4996  10.8943  11.2456  11.9998  12.2246  12.6799  13.8150  14.0110
    14.5450  14.7507  15.5321  15.8435  16.0498  16.4748  16.5302  17.1559

          k =-0.0864 0.1497 0.0000 (  5031 PWs)   bands (ev):

   -90.5114 -90.2442 -90.1824 -90.1272 -54.0163 -53.9791 -53.9690 -53.7528
   -53.7264 -53.6714 -53.6586 -53.6470 -53.6156 -53.6004 -53.5771 -53.5499
   -15.0434  -6.2493  -4.8254  -4.2814  -4.0168  -3.7658  -3.7152  -3.5608
    -3.3667  -3.2595  -2.9810  -2.8730  -2.7033  -2.5680  -2.4661  -2.3609
    -2.3512  -2.1825  -2.0867  -1.9274  -1.8350  -1.5287  -1.4429  -0.8568
    -0.5449   1.7021   2.0626   3.3263   4.8721   5.9900   6.5011   6.9132
     7.8099   8.1079   8.3411   8.7525   9.0098   9.4484   9.6509  10.5636
    10.6923  10.9859  11.1978  11.6553  12.0401  12.2885  12.5329  13.4290
    13.6190  13.7352  14.1679  14.4888  14.8511  15.1518  15.4337  15.5155

          k =-0.0864-0.1497 0.0000 (  5038 PWs)   bands (ev):

   -90.5086 -90.2412 -90.1796 -90.1244 -54.0146 -54.0075 -53.9710 -53.7646
   -53.7311 -53.7097 -53.6686 -53.6540 -53.6348 -53.6089 -53.5800 -53.5549
   -14.5579  -6.8926  -4.9654  -4.0671  -3.7933  -3.7181  -3.5616  -3.5077
    -3.4921  -3.3153  -2.9824  -2.9612  -2.7833  -2.7249  -2.5741  -2.5171
    -2.3207  -2.1312  -1.8417  -1.7048  -1.4698  -1.2787  -0.7052  -0.3507
     1.6742   2.0071   3.2851   4.3876   5.5516   7.6626   8.1058   8.2056
     8.3495   8.5158   8.8731   9.1551   9.5517   9.6115   9.8857  10.0227
    10.5306  10.8144  11.0088  11.4229  11.8512  11.9493  12.3362  12.4789
    12.9370  13.6208  13.6948  13.7649  14.2726  14.5826  14.7973  14.8709

     the Fermi energy is     1.9472 ev

!    total energy              =   -1205.80329219 Ry
     Harris-Foulkes estimate   =   -1205.80328363 Ry
     estimated scf accuracy    <       0.00000037 Ry

     The total energy is the sum of the following terms:

     one-electron contribution =   -6046.17410294 Ry
     hartree contribution      =    3021.07710064 Ry
     xc contribution           =    -123.30677134 Ry
     ewald contribution        =    1942.60778603 Ry
     electric field correction =       0.00017432 Ry
     smearing contrib. (-TS)   =      -0.00747890 Ry

     convergence has been achieved in  14 iterations

     Forces acting on atoms (Ry/au):


     negative rho (up, down):  2.371E-03 0.000E+00
     atom    1 type  1   force =    -0.00230427    0.00217340   -0.00880107
     atom    2 type  1   force =     0.00306632   -0.00161914   -0.01200837
     atom    3 type  1   force =     0.00602211   -0.00898826    0.02745530
     atom    4 type  1   force =    -0.03063659    0.02152435   -0.08156242
     atom    5 type  2   force =     0.01240824    0.00606056    0.03160114
     atom    6 type  3   force =    -0.01183723    0.03837810    0.04587073
     atom    7 type  3   force =     0.00343670   -0.05400440    0.02137031
     atom    8 type  3   force =     0.01984471   -0.00352460   -0.02392561

     Total force =     0.135790     Total SCF correction =     0.003891
 !ASE
  python dir          : /nfs/slac/g/suncatfs/aidank/software/ase-espresso/lib/python2.7/site-packages/espresso
  espresso dir        : /nfs/slac/g/suncatfs/aidank/software/espresso-qeforge/bin
  pseudo dir          : /nfs/slac/g/suncatfs/aidank/scripts/gbrv/
  ase-espresso py git : c91b4c2-git


 
     init_run     :      0.92s CPU      0.94s WALL (       1 calls)
     electrons    :     25.42s CPU     25.61s WALL (       1 calls)
     forces       :      0.60s CPU      0.60s WALL (       1 calls)

     Called by init_run:
     wfcinit      :      0.33s CPU      0.33s WALL (       1 calls)
     potinit      :      0.14s CPU      0.14s WALL (       1 calls)

     Called by electrons:
     c_bands      :     19.85s CPU     19.94s WALL (      14 calls)
     sum_band     :      3.51s CPU      3.53s WALL (      14 calls)
     v_of_rho     :      0.36s CPU      0.36s WALL (      15 calls)
     newd         :      1.60s CPU      1.61s WALL (      15 calls)
     mix_rho      :      0.10s CPU      0.10s WALL (      14 calls)

     Called by c_bands:
     init_us_2    :      0.10s CPU      0.10s WALL (     180 calls)
     cegterg      :     19.29s CPU     19.38s WALL (      84 calls)

     Called by *egterg:
     h_psi        :      8.17s CPU      8.24s WALL (     365 calls)
     s_psi        :      0.53s CPU      0.54s WALL (     365 calls)
     g_psi        :      0.07s CPU      0.08s WALL (     275 calls)
     cdiaghg      :      6.58s CPU      6.59s WALL (     359 calls)

     Called by h_psi:
     add_vuspsi   :      0.56s CPU      0.56s WALL (     365 calls)

     General routines
     calbec       :      1.00s CPU      1.01s WALL (     455 calls)
     fft          :      0.32s CPU      0.32s WALL (     247 calls)
     ffts         :      0.01s CPU      0.01s WALL (      29 calls)
     fftw         :      6.85s CPU      6.89s WALL (   34568 calls)
     interpolate  :      0.05s CPU      0.05s WALL (      29 calls)
 
     Parallel routines
     fft_scatter  :      3.24s CPU      3.26s WALL (   34844 calls)
 
     PWSCF        :    27.00s CPU        27.48s WALL

 
   This run was terminated on:   5:36:19  18Feb2017            

=------------------------------------------------------------------------------=
   JOB DONE.
=------------------------------------------------------------------------------=
Job  /afs/slac/g/suncat/bin/suncat-tsmpirun -x LD_LIBRARY_PATH -wdir /scratch/qe259882_q4t8U pw.x -in pw.inp

TID   HOST_NAME   COMMAND_LINE            STATUS            TERMINATION_TIME
===== ========== ================  =======================  ===================
00000 suncat1015 pw.x -in pw.inp   Done                     02/18/2017 05:36:19
[...]
        NL pseudopotentials             0.59 Mb     (     450,   86)
        Each V/rho on FFT grid          0.33 Mb     (   21870)
        Each G-vector array             0.07 Mb     (    9513)
        G-vector shells                 0.03 Mb     (    3999)
     Largest temporary arrays     est. size (Mb)     dimensions
        Auxiliary wavefunctions         1.98 Mb     (     450,  288)
        Each subspace H/S matrix        1.27 Mb     (     288,  288)
        Each <psi_i|beta_j> matrix      0.09 Mb     (      86,   72)
        Arrays for rho mixing           5.01 Mb     (   21870,   15)

     Initial potential from superposition of free atoms
     Check: negative starting charge=   -0.002415

     starting charge   81.99978, renormalised to   84.00000

     negative rho (up, down):  2.474E-03 0.000E+00
 
     Adding external electric field

     Computed dipole along edir(3) : 
        Dipole               -1.1856 Ry au,         -3.0136 Debye
        Dipole field         -0.0080 Ry au
 
        Potential amp.        0.5616 Ry
        Total length         35.2972 bohr
 
     Starting wfc are   59 randomized atomic wfcs +   13 random wfc

     total cpu time spent up to now is        1.0 secs

     per-process dynamical memory:    18.4 Mb

     Self-consistent Calculation

     iteration #  1     ecut=    29.40 Ry     beta=0.10
     Davidson diagonalization with overlap
     ethr =  1.00E-02,  avg # of iterations =  7.2

     negative rho (up, down):  1.096E-03 0.000E+00
 
     Adding external electric field

     Computed dipole along edir(3) : 
        Dipole                1.3588 Ry au,          3.4537 Debye
        Dipole field          0.0091 Ry au
 
        Potential amp.       -0.6436 Ry
        Total length         35.2972 bohr
 

     total cpu time spent up to now is        5.6 secs

     total energy              =   -1203.79155225 Ry
     Harris-Foulkes estimate   =   -1207.56739642 Ry
     estimated scf accuracy    <      21.54301258 Ry

     iteration #  2     ecut=    29.40 Ry     beta=0.10
     Davidson diagonalization with overlap
     ethr =  1.00E-02,  avg # of iterations =  3.5

     negative rho (up, down):  7.843E-04 0.000E+00
 
     Adding external electric field

     Computed dipole along edir(3) : 
        Dipole                0.0089 Ry au,          0.0227 Debye
        Dipole field          0.0001 Ry au
 
        Potential amp.       -0.0042 Ry
        Total length         35.2972 bohr
 

     total cpu time spent up to now is        7.5 secs

     total energy              =   -1205.06307873 Ry
     Harris-Foulkes estimate   =   -1207.26192235 Ry
     estimated scf accuracy    <      23.99916841 Ry

     iteration #  3     ecut=    29.40 Ry     beta=0.10
     Davidson diagonalization with overlap
     ethr =  1.00E-02,  avg # of iterations =  2.3

     negative rho (up, down):  8.348E-04 0.000E+00
 
     Adding external electric field

     Computed dipole along edir(3) : 
        Dipole                0.0291 Ry au,          0.0740 Debye
        Dipole field          0.0002 Ry au
 
        Potential amp.       -0.0138 Ry
        Total length         35.2972 bohr
 

     total cpu time spent up to now is        9.1 secs

     total energy              =   -1205.91237836 Ry
     Harris-Foulkes estimate   =   -1206.12960178 Ry
     estimated scf accuracy    <       1.17659306 Ry

     iteration #  4     ecut=    29.40 Ry     beta=0.10
     Davidson diagonalization with overlap
     ethr =  1.40E-03,  avg # of iterations =  2.5

     negative rho (up, down):  9.539E-04 0.000E+00
 
     Adding external electric field

     Computed dipole along edir(3) : 
        Dipole                0.2386 Ry au,          0.6064 Debye
        Dipole field          0.0016 Ry au
 
        Potential amp.       -0.1130 Ry
        Total length         35.2972 bohr
 

     total cpu time spent up to now is       10.6 secs

     total energy              =   -1205.72075485 Ry
     Harris-Foulkes estimate   =   -1205.94292263 Ry
     estimated scf accuracy    <       0.51367244 Ry

     iteration #  5     ecut=    29.40 Ry     beta=0.10
     Davidson diagonalization with overlap
     ethr =  6.12E-04,  avg # of iterations =  3.7

     negative rho (up, down):  9.938E-04 0.000E+00
 
     Adding external electric field

     Computed dipole along edir(3) : 
        Dipole                0.2122 Ry au,          0.5393 Debye
        Dipole field          0.0014 Ry au
 
        Potential amp.       -0.1005 Ry
        Total length         35.2972 bohr
 

     total cpu time spent up to now is       12.5 secs

     total energy              =   -1205.80863637 Ry
     Harris-Foulkes estimate   =   -1205.81173142 Ry
     estimated scf accuracy    <       0.03551302 Ry

     iteration #  6     ecut=    29.40 Ry     beta=0.10
     Davidson diagonalization with overlap
     ethr =  4.23E-05,  avg # of iterations =  4.5

     negative rho (up, down):  1.404E-03 0.000E+00
 
     Adding external electric field

     Computed dipole along edir(3) : 
        Dipole                0.2280 Ry au,          0.5794 Debye
        Dipole field          0.0015 Ry au
 
        Potential amp.       -0.1080 Ry
        Total length         35.2972 bohr
 

     total cpu time spent up to now is       14.4 secs

     total energy              =   -1205.80138646 Ry
     Harris-Foulkes estimate   =   -1205.80924304 Ry
     estimated scf accuracy    <       0.02280392 Ry

     iteration #  7     ecut=    29.40 Ry     beta=0.10
     Davidson diagonalization with overlap
     ethr =  2.71E-05,  avg # of iterations =  5.5

     negative rho (up, down):  1.451E-03 0.000E+00
 
     Adding external electric field

     Computed dipole along edir(3) : 
        Dipole                0.2303 Ry au,          0.5855 Debye
        Dipole field          0.0015 Ry au
 
        Potential amp.       -0.1091 Ry
        Total length         35.2972 bohr
 

     total cpu time spent up to now is       16.6 secs

     total energy              =   -1205.80322791 Ry
     Harris-Foulkes estimate   =   -1205.80391058 Ry
     estimated scf accuracy    <       0.00575613 Ry

     iteration #  8     ecut=    29.40 Ry     beta=0.10
     Davidson diagonalization with overlap
     ethr =  6.85E-06,  avg # of iterations =  2.8

     negative rho (up, down):  1.732E-03 0.000E+00
 
     Adding external electric field

     Computed dipole along edir(3) : 
        Dipole                0.1861 Ry au,          0.4729 Debye
        Dipole field          0.0012 Ry au
 
        Potential amp.       -0.0881 Ry
        Total length         35.2972 bohr
 

     total cpu time spent up to now is       18.2 secs

     total energy              =   -1205.80286522 Ry
     Harris-Foulkes estimate   =   -1205.80357415 Ry
     estimated scf accuracy    <       0.00242503 Ry

     iteration #  9     ecut=    29.40 Ry     beta=0.10
     Davidson diagonalization with overlap
     ethr =  2.89E-06,  avg # of iterations =  3.7

     negative rho (up, down):  1.932E-03 0.000E+00
 
     Adding external electric field

     Computed dipole along edir(3) : 
        Dipole                0.1701 Ry au,          0.4322 Debye
        Dipole field          0.0011 Ry au
 
        Potential amp.       -0.0805 Ry
        Total length         35.2972 bohr
 

     total cpu time spent up to now is       20.0 secs

     total energy              =   -1205.80313283 Ry
     Harris-Foulkes estimate   =   -1205.80322723 Ry
     estimated scf accuracy    <       0.00039475 Ry

     iteration # 10     ecut=    29.40 Ry     beta=0.10
     Davidson diagonalization with overlap
     ethr =  4.70E-07,  avg # of iterations =  2.8

     negative rho (up, down):  2.075E-03 0.000E+00
 
     Adding external electric field

     Computed dipole along edir(3) : 
        Dipole                0.1724 Ry au,          0.4383 Debye
        Dipole field          0.0012 Ry au
 
        Potential amp.       -0.0817 Ry
        Total length         35.2972 bohr
 

     total cpu time spent up to now is       21.6 secs

     total energy              =   -1205.80314963 Ry
     Harris-Foulkes estimate   =   -1205.80316357 Ry
     estimated scf accuracy    <       0.00020519 Ry

     iteration # 11     ecut=    29.40 Ry     beta=0.10
     Davidson diagonalization with overlap
     ethr =  2.44E-07,  avg # of iterations =  1.7

     negative rho (up, down):  2.208E-03 0.000E+00
 
     Adding external electric field

     Computed dipole along edir(3) : 
        Dipole                0.1704 Ry au,          0.4332 Debye
        Dipole field          0.0011 Ry au
 
        Potential amp.       -0.0807 Ry
        Total length         35.2972 bohr
 

     total cpu time spent up to now is       23.0 secs

     total energy              =   -1205.80316800 Ry
     Harris-Foulkes estimate   =   -1205.80317109 Ry
     estimated scf accuracy    <       0.00002195 Ry

     iteration # 12     ecut=    29.40 Ry     beta=0.10
     Davidson diagonalization with overlap
     ethr =  2.61E-08,  avg # of iterations =  2.0

     negative rho (up, down):  2.310E-03 0.000E+00
 
     Adding external electric field

     Computed dipole along edir(3) : 
        Dipole                0.1686 Ry au,          0.4286 Debye
        Dipole field          0.0011 Ry au
 
        Potential amp.       -0.0799 Ry
        Total length         35.2972 bohr
 

     total cpu time spent up to now is       24.5 secs

     total energy              =   -1205.80317239 Ry
     Harris-Foulkes estimate   =   -1205.80317445 Ry
     estimated scf accuracy    <       0.00001325 Ry

     iteration # 13     ecut=    29.40 Ry     beta=0.10
     Davidson diagonalization with overlap
     ethr =  1.58E-08,  avg # of iterations =  1.0

     negative rho (up, down):  2.336E-03 0.000E+00
 
     Adding external electric field

     Computed dipole along edir(3) : 
        Dipole                0.1679 Ry au,          0.4269 Debye
        Dipole field          0.0011 Ry au
 
        Potential amp.       -0.0796 Ry
        Total length         35.2972 bohr
 

     total cpu time spent up to now is       25.8 secs

     total energy              =   -1205.80317369 Ry
     Harris-Foulkes estimate   =   -1205.80317424 Ry
     estimated scf accuracy    <       0.00000261 Ry

     iteration # 14     ecut=    29.40 Ry     beta=0.10
     Davidson diagonalization with overlap
     ethr =  3.11E-09,  avg # of iterations =  2.0

     negative rho (up, down):  2.364E-03 0.000E+00
 
     Adding external electric field

     Computed dipole along edir(3) : 
        Dipole                0.1691 Ry au,          0.4299 Debye
        Dipole field          0.0011 Ry au
 
        Potential amp.       -0.0801 Ry
        Total length         35.2972 bohr
 

     total cpu time spent up to now is       27.2 secs

     End of self-consistent calculation

          k = 0.0000 0.0000 0.0000 (  5071 PWs)   bands (ev):

   -90.4973 -90.2308 -90.1668 -90.1186 -54.0031 -53.9714 -53.9134 -53.7558
   -53.6711 -53.6457 -53.6230 -53.6055 -53.6029 -53.5822 -53.5366 -53.5317
   -15.4976  -6.2419  -5.2867  -4.6065  -4.5039  -4.3710  -4.1445  -3.5266
    -3.1482  -2.9913  -2.9575  -2.8748  -2.8534  -2.7574  -2.6107  -2.1293
    -1.9725  -1.8303  -1.7572  -1.5301  -1.4941  -1.4422  -1.2167  -1.1160
    -0.3047   0.6938   1.4511   2.6658   3.4950   4.5788   5.3359   5.8208
     6.4565   6.6675   7.5709   8.0567   9.0873   9.3361   9.4872   9.9110
    10.5159  11.0493  11.1297  11.4159  11.6274  12.2788  12.6350  12.8228
    13.2015  13.8400  13.9636  14.5176  15.0760  15.1417  15.8277  16.5923

          k = 0.0000 0.0998 0.0000 (  5031 PWs)   bands (ev):

   -90.4944 -90.2276 -90.1643 -90.1159 -53.9985 -53.9641 -53.9528 -53.7377
   -53.7091 -53.6484 -53.6430 -53.6334 -53.6030 -53.5865 -53.5642 -53.5362
   -15.0876  -6.2915  -4.8515  -4.2572  -4.0895  -3.7937  -3.6902  -3.4270
    -3.3608  -3.2525  -2.9622  -2.8326  -2.7028  -2.5281  -2.4856  -2.3716
    -2.2760  -2.1737  -2.0211  -1.9048  -1.7523  -1.5373  -1.3941  -0.8774
    -0.7022   1.5461   2.1417   3.2548   4.9812   6.0127   6.5429   6.9518
     7.8997   8.1868   8.4025   8.7461   9.0723   9.4129   9.6906  10.6584
    10.6690  10.8909  11.1313  11.4828  12.0478  12.3475  12.4535  13.2778
    13.4727  13.6538  14.0843  14.4159  14.8699  15.0526  15.4131  15.5473

          k = 0.0000-0.1996 0.0000 (  5048 PWs)   bands (ev):

   -90.4915 -90.2246 -90.1615 -90.1131 -54.0012 -53.9916 -53.9591 -53.7595
   -53.7423 -53.6647 -53.6396 -53.6357 -53.6165 -53.5952 -53.5627 -53.5435
   -14.5975  -6.9230  -5.0573  -4.5799  -4.4187  -4.3592  -4.1112  -3.9139
    -3.7448  -3.3949  -2.9287  -2.7188  -2.5296  -2.1850  -1.8889  -1.6866
    -1.5936  -1.5706  -1.3105  -1.1712  -1.1135  -1.0940  -0.8666  -0.4681
     2.1493   2.4988   3.0440   3.3593   4.8173   5.9457   6.3381   6.5701
     8.0480   8.4197   8.9662   9.7514  10.1133  10.4381  10.7111  10.8899
    11.0631  11.1020  11.2374  11.2597  11.5093  12.2367  12.3503  12.4944
    12.5745  12.7064  13.0729  13.2372  13.5813  13.8039  14.2426  14.4539

          k =-0.0864 0.0499 0.0000 (  5024 PWs)   bands (ev):

   -90.4972 -90.2303 -90.1674 -90.1187 -54.0023 -53.9623 -53.9121 -53.7219
   -53.6666 -53.6594 -53.6435 -53.6135 -53.6065 -53.5861 -53.5352 -53.5312
   -15.4866  -6.1456  -5.0872  -4.1915  -3.9824  -3.8606  -3.7442  -3.4051
    -3.2444  -3.1930  -2.9851  -2.8974  -2.6209  -2.4570  -2.4130  -2.3530
    -2.2526  -2.1889  -2.1216  -2.0289  -1.9354  -1.7550  -1.4913  -1.4043
    -1.0540  -0.2764   1.4708   2.4205   3.6218   5.2907   5.9329   6.2060
     6.6661   6.8396   7.1652   7.8905   8.2885   8.5466   9.1804   9.7497
    10.5025  10.8951  11.2358  12.0124  12.2339  12.6746  13.8160  14.0178
    14.5406  14.7639  15.5389  15.8512  16.0599  16.4873  16.5370  17.1473

          k =-0.0864 0.1497 0.0000 (  5031 PWs)   bands (ev):

   -90.4944 -90.2276 -90.1643 -90.1159 -53.9985 -53.9622 -53.9548 -53.7362
   -53.7100 -53.6536 -53.6417 -53.6300 -53.6027 -53.5865 -53.5643 -53.5363
   -15.0876  -6.2905  -4.8424  -4.2660  -4.0058  -3.7528  -3.7011  -3.5455
    -3.3566  -3.2453  -2.9646  -2.8578  -2.6882  -2.5528  -2.4519  -2.3516
    -2.3353  -2.1690  -2.0734  -1.9124  -1.8211  -1.5134  -1.4286  -0.8634
    -0.5520   1.7133   2.0680   3.3500   4.8754   5.9694   6.5040   6.9021
     7.8094   8.1047   8.3519   8.7467   9.0154   9.4435   9.6445  10.5659
    10.6927  10.9953  11.1980  11.6539  12.0434  12.2913  12.5291  13.4216
    13.6061  13.7358  14.1617  14.4803  14.8476  15.1540  15.4265  15.5085

          k =-0.0864-0.1497 0.0000 (  5038 PWs)   bands (ev):

   -90.4915 -90.2246 -90.1615 -90.1132 -53.9996 -53.9906 -53.9541 -53.7483
   -53.7147 -53.6916 -53.6510 -53.6377 -53.6226 -53.5977 -53.5625 -53.5426
   -14.6041  -6.9253  -4.9839  -4.0590  -3.7785  -3.7035  -3.5475  -3.4916
    -3.4794  -3.3044  -2.9654  -2.9461  -2.7682  -2.7098  -2.5590  -2.5011
    -2.3138  -2.1183  -1.8281  -1.6902  -1.4544  -1.2646  -0.7037  -0.3895
     1.6932   2.0154   3.3252   4.3945   5.5604   7.6589   8.1173   8.2116
     8.3540   8.5039   8.8719   9.1560   9.5517   9.6119   9.8702  10.0173
    10.5403  10.8215  11.0135  11.4299  11.8510  11.9502  12.3405  12.4763
    12.9384  13.6127  13.6939  13.7579  14.2635  14.5690  14.7901  14.8610

     the Fermi energy is     1.9574 ev

!    total energy              =   -1205.80318034 Ry
     Harris-Foulkes estimate   =   -1205.80317137 Ry
     estimated scf accuracy    <       0.00000034 Ry

     The total energy is the sum of the following terms:

     one-electron contribution =   -6044.45424524 Ry
     hartree contribution      =    3020.23580777 Ry
     xc contribution           =    -123.30860255 Ry
     ewald contribution        =    1941.73119240 Ry
     electric field correction =       0.00019192 Ry
     smearing contrib. (-TS)   =      -0.00752464 Ry

     convergence has been achieved in  14 iterations

     Forces acting on atoms (Ry/au):


     negative rho (up, down):  2.364E-03 0.000E+00
     atom    1 type  1   force =    -0.00229093    0.00216792   -0.00912261
     atom    2 type  1   force =     0.00307055   -0.00161997   -0.01222627
     atom    3 type  1   force =     0.00592696   -0.00877811    0.02691664
     atom    4 type  1   force =    -0.02954561    0.02131434   -0.08418149
     atom    5 type  2   force =     0.00784503    0.00795259    0.02953648
     atom    6 type  3   force =    -0.01106052    0.03826371    0.04936717
     atom    7 type  3   force =     0.00278527   -0.05448463    0.02148719
     atom    8 type  3   force =     0.02326924   -0.00481586   -0.02177710

     Total force =     0.137851     Total SCF correction =     0.003363
 !ASE
 
     init_run     :      0.91s CPU      0.92s WALL (       1 calls)
     electrons    :     26.01s CPU     26.19s WALL (       1 calls)
     forces       :      0.60s CPU      0.60s WALL (       1 calls)

     Called by init_run:
     wfcinit      :      0.33s CPU      0.33s WALL (       1 calls)
     potinit      :      0.14s CPU      0.14s WALL (       1 calls)

     Called by electrons:
     c_bands      :     20.48s CPU     20.63s WALL (      14 calls)
     sum_band     :      3.50s CPU      3.53s WALL (      14 calls)
     v_of_rho     :      0.36s CPU      0.37s WALL (      15 calls)
     newd         :      1.62s CPU      1.63s WALL (      15 calls)
     mix_rho      :      0.11s CPU      0.11s WALL (      14 calls)

     Called by c_bands:
     init_us_2    :      0.10s CPU      0.10s WALL (     180 calls)
     cegterg      :     19.93s CPU     20.07s WALL (      84 calls)

     Called by *egterg:
     h_psi        :      8.52s CPU      8.63s WALL (     361 calls)
     s_psi        :      0.53s CPU      0.54s WALL (     361 calls)
     g_psi        :      0.08s CPU      0.08s WALL (     271 calls)
     cdiaghg      :      6.58s CPU      6.61s WALL (     355 calls)

     Called by h_psi:
     add_vuspsi   :      0.56s CPU      0.56s WALL (     361 calls)

     General routines
     calbec       :      1.04s CPU      1.06s WALL (     451 calls)
     fft          :      0.31s CPU      0.30s WALL (     247 calls)
     ffts         :      0.01s CPU      0.01s WALL (      29 calls)
     fftw         :      7.25s CPU      7.26s WALL (   34568 calls)
     interpolate  :      0.05s CPU      0.05s WALL (      29 calls)
 
     Parallel routines
     fft_scatter  :      3.45s CPU      3.54s WALL (   34844 calls)
 
     PWSCF        :    27.59s CPU        27.92s WALL

 
   This run was terminated on:   5:39:39  18Feb2017            

=------------------------------------------------------------------------------=
   JOB DONE.
=------------------------------------------------------------------------------=
Job  /afs/slac/g/suncat/bin/suncat-tsmpirun -x LD_LIBRARY_PATH -wdir /scratch/qe259882_sniUL pw.x -in pw.inp

TID   HOST_NAME   COMMAND_LINE            STATUS            TERMINATION_TIME
===== ========== ================  =======================  ===================
00000 suncat1015 pw.x -in pw.inp   Done                     02/18/2017 05:39:39
00001 suncat1015 pw.x -in pw.inp   Done                     02/18/2017 05:39:39
00002 suncat1015 pw.x -in pw.inp   Done                     02/18/2017 05:39:39
00003 suncat1015 pw.x -in pw.inp   Done                     02/18/2017 05:39:39
00004 suncat1015 pw.x -in pw.inp   Done                     02/18/2017 05:39:39
00005 suncat1015 pw.x -in pw.inp   Done                     02/18/2017 05:39:39
00006 suncat1015 pw.x -in pw.inp   Done                     02/18/2017 05:39:39
00007 suncat1015 pw.x -in pw.inp   Done                     02/18/2017 05:39:39
00008 suncat1015 pw.x -in pw.inp   Done                     02/18/2017 05:39:39
00009 suncat1015 pw.x -in pw.inp   Done                     02/18/2017 05:39:39
00010 suncat1015 pw.x -in pw.inp   Done                     02/18/2017 05:39:39
00011 suncat1015 pw.x -in pw.inp   Done                     02/18/2017 05:39:39
