  python dir          : /nfs/slac/g/suncatfs/aidank/software/ase-espresso/lib/python2.7/site-packages/espresso
  espresso dir        : /nfs/slac/g/suncatfs/aidank/software/espresso-qeforge/bin
  pseudo dir          : /nfs/slac/g/suncatfs/aidank/scripts/gbrv/
  ase-espresso py git : c91b4c2-git



     Program PWSCF v.5.0.2 (svn rev. 10453) starts on 18Feb2017 at  7:18:41 

     This program is part of the open-source Quantum ESPRESSO suite
     for quantum simulation of materials; please cite
         "P. Giannozzi et al., J. Phys.:Condens. Matter 21 395502 (2009);
          URL http://www.quantum-espresso.org", 
     in publications or presentations arising from this work. More details at
     http://www.quantum-espresso.org/quote

     Parallel version (MPI), running on    12 processors
     R & G space division:  proc/nbgrp/npool/nimage =      12
     Reading input from pw.inp
     Message from routine read_cards :
     DEPRECATED: no units specified in CELL_PARAMETERS card

     Current dimensions of program PWSCF are:
     Max number of different atomic species (ntypx) = 10
     Max number of k-points (npk) =  40000
     Max angular momentum in pseudopotentials (lmaxx) =  3
     Presently no symmetry can be used with electric field


     IMPORTANT: XC functional enforced from input :
     Exchange-correlation      = PBE ( 1  4  3  4 0)
     Any further DFT definition will be discarded
     Please, verify this is what you really want


     Subspace diagonalization in iterative solution of the eigenvalue problem:
     a serial algorithm will be used

 
     Parallelization info
     --------------------
     sticks:   dense  smooth     PW     G-vecs:    dense   smooth      PW
     Min          81      39     12                 9513     3338     586
     Max          82      40     16                 9522     3378     597
     Sum         981     479    161               114205    40347    7083
 


     bravais-lattice index     =            0
     lattice parameter (alat)  =       1.8897  a.u.
     unit-cell volume          =    1872.8848 (a.u.)^3
     number of atoms/cell      =            8
     number of atomic types    =            3
     number of electrons       =        84.00
     number of Kohn-Sham states=           72
     kinetic-energy cutoff     =      29.3995  Ry
     charge density cutoff     =     235.1957  Ry
     convergence threshold     =      1.0E-06
     mixing beta               =       0.1000
     number of iterations used =           15  plain     mixing
     Exchange-correlation      = PBE ( 1  4  3  4 0)
     nstep                     =           50


     celldm(1)=   1.889726  celldm(2)=   0.000000  celldm(3)=   0.000000
     celldm(4)=   0.000000  celldm(5)=   0.000000  celldm(6)=   0.000000

     crystal axes: (cart. coord. in units of alat)
               a(1) = (   5.784133   0.000000   0.000000 )  
               a(2) = (   1.446033   2.504603   0.000000 )  
               a(3) = (   0.000000   0.000000  19.157428 )  

     reciprocal axes: (cart. coord. in units 2 pi/alat)
               b(1) = (  0.172887 -0.099816  0.000000 )  
               b(2) = (  0.000000  0.399265  0.000000 )  
               b(3) = (  0.000000  0.000000  0.052199 )  


     PseudoPot. # 1 for Ag read from file:
     /nfs/slac/g/suncatfs/aidank/scripts/gbrv/Ag.UPF
     MD5 check sum: d66d668201baa78d5eb5b04ef7011058
     Pseudo is Ultrasoft + core correction, Zval = 19.0
     Generated by new atomic code, or converted to UPF format
     Using radial grid of  887 points,  6 beta functions with: 
                l(1) =   0
                l(2) =   0
                l(3) =   1
                l(4) =   1
                l(5) =   2
                l(6) =   2
     Q(r) pseudized with  6 coefficients,  rinner =    1.300   1.300   1.300
                                                       1.300   1.300

     PseudoPot. # 2 for N  read from file:
     /nfs/slac/g/suncatfs/aidank/scripts/gbrv/N.UPF
     MD5 check sum: 95339753478d7afb44899504a8723017
     Pseudo is Ultrasoft + core correction, Zval =  5.0
     Generated by new atomic code, or converted to UPF format
     Using radial grid of  729 points,  4 beta functions with: 
                l(1) =   0
                l(2) =   0
                l(3) =   1
                l(4) =   1
     Q(r) pseudized with  8 coefficients,  rinner =    0.900   0.900   0.900


     PseudoPot. # 3 for H  read from file:
     /nfs/slac/g/suncatfs/aidank/scripts/gbrv/H.UPF
     MD5 check sum: 761ae9a214b05c3daf00ab9f6b793d6f
     Pseudo is Ultrasoft, Zval =  1.0
     Generated by new atomic code, or converted to UPF format
     Using radial grid of  615 points,  2 beta functions with: 
                l(1) =   0
                l(2) =   0
     Q(r) pseudized with  8 coefficients,  rinner =    0.700

     atomic species   valence    mass     pseudopotential
        Ag1           19.00   107.86800     Ag( 1.00)
        N1             5.00    14.00670     N ( 1.00)
        H1             1.00     1.00794     H ( 1.00)

     No symmetry found



   Cartesian axes

     site n.     atom                  positions (alat units)
         1           Ag1 tau(   1) = (   5.4594866   0.7084522   7.1205000  )
         2           Ag1 tau(   2) = (   2.5674199   0.7084522   7.1205000  )
         3           Ag1 tau(   3) = (   1.1213865   1.5433200   9.4818626  )
         4           Ag1 tau(   4) = (   4.0134533   1.5433200   9.4818626  )
         5           N1  tau(   5) = (   4.7606120   1.6757251  11.3819054  )
         6           H1  tau(   6) = (   4.5005772   2.0886938  12.2870846  )
         7           H1  tau(   7) = (   4.4762475   0.7096787  11.5153988  )
         8           H1  tau(   8) = (   2.8850125   2.2248169  10.8577529  )

     number of k points=     6  Fermi-Dirac smearing, width (Ry)=  0.0073
                       cart. coord. in units 2pi/alat
        k(    1) = (   0.0000000   0.0000000   0.0000000), wk =   0.2500000
        k(    2) = (   0.0000000   0.0998162   0.0000000), wk =   0.5000000
        k(    3) = (   0.0000000  -0.1996324   0.0000000), wk =   0.2500000
        k(    4) = (  -0.0864434   0.0499081   0.0000000), wk =   0.2500000
        k(    5) = (  -0.0864434   0.1497243   0.0000000), wk =   0.5000000
        k(    6) = (  -0.0864434  -0.1497243   0.0000000), wk =   0.2500000

     Dense  grid:   114205 G-vectors     FFT dimensions: (  54,  27, 180)

     Smooth grid:    40347 G-vectors     FFT dimensions: (  40,  20, 125)

     Largest allocated arrays     est. size (Mb)     dimensions
        Kohn-Sham Wavefunctions         0.49 Mb     (     450,   72)
        NL pseudopotentials             0.59 Mb     (     450,   86)
        Each V/rho on FFT grid          0.33 Mb     (   21870)
        Each G-vector array             0.07 Mb     (    9513)
        G-vector shells                 0.03 Mb     (    3999)
     Largest temporary arrays     est. size (Mb)     dimensions
        Auxiliary wavefunctions         1.98 Mb     (     450,  288)
        Each subspace H/S matrix        1.27 Mb     (     288,  288)
        Each <psi_i|beta_j> matrix      0.09 Mb     (      86,   72)
        Arrays for rho mixing           5.01 Mb     (   21870,   15)

     Initial potential from superposition of free atoms
     Check: negative starting charge=   -0.002429

     starting charge   81.99978, renormalised to   84.00000

     negative rho (up, down):  2.488E-03 0.000E+00
 
     Adding external electric field

     Computed dipole along edir(3) : 
        Dipole               -1.1596 Ry au,         -2.9474 Debye
        Dipole field         -0.0078 Ry au
 
        Potential amp.        0.5493 Ry
        Total length         35.2972 bohr
 
     Starting wfc are   59 randomized atomic wfcs +   13 random wfc

     total cpu time spent up to now is        1.1 secs

     per-process dynamical memory:    18.4 Mb

     Self-consistent Calculation

     iteration #  1     ecut=    29.40 Ry     beta=0.10
     Davidson diagonalization with overlap
     ethr =  1.00E-02,  avg # of iterations =  7.0

     negative rho (up, down):  1.093E-03 0.000E+00
 
     Adding external electric field

     Computed dipole along edir(3) : 
        Dipole                1.3867 Ry au,          3.5247 Debye
        Dipole field          0.0093 Ry au
 
        Potential amp.       -0.6568 Ry
        Total length         35.2972 bohr
 

     total cpu time spent up to now is        4.9 secs

     total energy              =   -1203.75328185 Ry
     Harris-Foulkes estimate   =   -1207.61491774 Ry
     estimated scf accuracy    <      22.04034127 Ry

     iteration #  2     ecut=    29.40 Ry     beta=0.10
     Davidson diagonalization with overlap
     ethr =  1.00E-02,  avg # of iterations =  3.5

     negative rho (up, down):  8.036E-04 0.000E+00
 
     Adding external electric field

     Computed dipole along edir(3) : 
        Dipole                0.0490 Ry au,          0.1246 Debye
        Dipole field          0.0003 Ry au
 
        Potential amp.       -0.0232 Ry
        Total length         35.2972 bohr
 

     total cpu time spent up to now is        6.8 secs

     total energy              =   -1205.18315360 Ry
     Harris-Foulkes estimate   =   -1207.28882780 Ry
     estimated scf accuracy    <      22.19407965 Ry

     iteration #  3     ecut=    29.40 Ry     beta=0.10
     Davidson diagonalization with overlap
     ethr =  1.00E-02,  avg # of iterations =  2.7

     negative rho (up, down):  8.755E-04 0.000E+00
 
     Adding external electric field

     Computed dipole along edir(3) : 
        Dipole               -0.0658 Ry au,         -0.1673 Debye
        Dipole field         -0.0004 Ry au
 
        Potential amp.        0.0312 Ry
        Total length         35.2972 bohr
 

     total cpu time spent up to now is        8.4 secs

     total energy              =   -1205.91032877 Ry
     Harris-Foulkes estimate   =   -1206.15333188 Ry
     estimated scf accuracy    <       1.26429459 Ry

     iteration #  4     ecut=    29.40 Ry     beta=0.10
     Davidson diagonalization with overlap
     ethr =  1.51E-03,  avg # of iterations =  2.7

     negative rho (up, down):  9.357E-04 0.000E+00
 
     Adding external electric field

     Computed dipole along edir(3) : 
        Dipole                0.2225 Ry au,          0.5656 Debye
        Dipole field          0.0015 Ry au
 
        Potential amp.       -0.1054 Ry
        Total length         35.2972 bohr
 

     total cpu time spent up to now is       10.0 secs

     total energy              =   -1205.76713634 Ry
     Harris-Foulkes estimate   =   -1205.95994751 Ry
     estimated scf accuracy    <       0.59094743 Ry

     iteration #  5     ecut=    29.40 Ry     beta=0.10
     Davidson diagonalization with overlap
     ethr =  7.04E-04,  avg # of iterations =  3.5

     negative rho (up, down):  1.017E-03 0.000E+00
 
     Adding external electric field

     Computed dipole along edir(3) : 
        Dipole                0.1488 Ry au,          0.3781 Debye
        Dipole field          0.0010 Ry au
 
        Potential amp.       -0.0705 Ry
        Total length         35.2972 bohr
 

     total cpu time spent up to now is       11.8 secs

     total energy              =   -1205.82099888 Ry
     Harris-Foulkes estimate   =   -1205.84453630 Ry
     estimated scf accuracy    <       0.20084053 Ry

     iteration #  6     ecut=    29.40 Ry     beta=0.10
     Davidson diagonalization with overlap
     ethr =  2.39E-04,  avg # of iterations =  1.5

     negative rho (up, down):  1.269E-03 0.000E+00
 
     Adding external electric field

     Computed dipole along edir(3) : 
        Dipole                0.0799 Ry au,          0.2030 Debye
        Dipole field          0.0005 Ry au
 
        Potential amp.       -0.0378 Ry
        Total length         35.2972 bohr
 

     total cpu time spent up to now is       13.1 secs

     total energy              =   -1205.82062922 Ry
     Harris-Foulkes estimate   =   -1205.82928851 Ry
     estimated scf accuracy    <       0.03019858 Ry

     iteration #  7     ecut=    29.40 Ry     beta=0.10
     Davidson diagonalization with overlap
     ethr =  3.60E-05,  avg # of iterations =  5.7

     negative rho (up, down):  1.519E-03 0.000E+00
 
     Adding external electric field

     Computed dipole along edir(3) : 
        Dipole                0.1450 Ry au,          0.3684 Debye
        Dipole field          0.0010 Ry au
 
        Potential amp.       -0.0687 Ry
        Total length         35.2972 bohr
 

     total cpu time spent up to now is       15.3 secs

     total energy              =   -1205.81841797 Ry
     Harris-Foulkes estimate   =   -1205.82546506 Ry
     estimated scf accuracy    <       0.06101570 Ry

     iteration #  8     ecut=    29.40 Ry     beta=0.10
     Davidson diagonalization with overlap
     ethr =  3.60E-05,  avg # of iterations =  4.5

     negative rho (up, down):  1.581E-03 0.000E+00
 
     Adding external electric field

     Computed dipole along edir(3) : 
        Dipole                0.1200 Ry au,          0.3051 Debye
        Dipole field          0.0008 Ry au
 
        Potential amp.       -0.0569 Ry
        Total length         35.2972 bohr
 

     total cpu time spent up to now is       17.2 secs

     total energy              =   -1205.82212193 Ry
     Harris-Foulkes estimate   =   -1205.82256699 Ry
     estimated scf accuracy    <       0.00597522 Ry

     iteration #  9     ecut=    29.40 Ry     beta=0.10
     Davidson diagonalization with overlap
     ethr =  7.11E-06,  avg # of iterations =  2.3

     negative rho (up, down):  2.039E-03 0.000E+00
 
     Adding external electric field

     Computed dipole along edir(3) : 
        Dipole                0.0735 Ry au,          0.1868 Debye
        Dipole field          0.0005 Ry au
 
        Potential amp.       -0.0348 Ry
        Total length         35.2972 bohr
 

     total cpu time spent up to now is       18.7 secs

     total energy              =   -1205.82200823 Ry
     Harris-Foulkes estimate   =   -1205.82232046 Ry
     estimated scf accuracy    <       0.00110786 Ry

     iteration # 10     ecut=    29.40 Ry     beta=0.10
     Davidson diagonalization with overlap
     ethr =  1.32E-06,  avg # of iterations =  4.2

     negative rho (up, down):  2.049E-03 0.000E+00
 
     Adding external electric field

     Computed dipole along edir(3) : 
        Dipole                0.0786 Ry au,          0.1999 Debye
        Dipole field          0.0005 Ry au
 
        Potential amp.       -0.0372 Ry
        Total length         35.2972 bohr
 

     total cpu time spent up to now is       20.8 secs

     total energy              =   -1205.82214820 Ry
     Harris-Foulkes estimate   =   -1205.82220138 Ry
     estimated scf accuracy    <       0.00024625 Ry

     iteration # 11     ecut=    29.40 Ry     beta=0.10
     Davidson diagonalization with overlap
     ethr =  2.93E-07,  avg # of iterations =  1.0

     negative rho (up, down):  2.177E-03 0.000E+00
 
     Adding external electric field

     Computed dipole along edir(3) : 
        Dipole                0.0755 Ry au,          0.1920 Debye
        Dipole field          0.0005 Ry au
 
        Potential amp.       -0.0358 Ry
        Total length         35.2972 bohr
 

     total cpu time spent up to now is       22.1 secs

     total energy              =   -1205.82217353 Ry
     Harris-Foulkes estimate   =   -1205.82217533 Ry
     estimated scf accuracy    <       0.00003948 Ry

     iteration # 12     ecut=    29.40 Ry     beta=0.10
     Davidson diagonalization with overlap
     ethr =  4.70E-08,  avg # of iterations =  1.2

     negative rho (up, down):  2.348E-03 0.000E+00
 
     Adding external electric field

     Computed dipole along edir(3) : 
        Dipole                0.0721 Ry au,          0.1833 Debye
        Dipole field          0.0005 Ry au
 
        Potential amp.       -0.0342 Ry
        Total length         35.2972 bohr
 

     total cpu time spent up to now is       23.4 secs

     total energy              =   -1205.82217893 Ry
     Harris-Foulkes estimate   =   -1205.82218063 Ry
     estimated scf accuracy    <       0.00001558 Ry

     iteration # 13     ecut=    29.40 Ry     beta=0.10
     Davidson diagonalization with overlap
     ethr =  1.85E-08,  avg # of iterations =  2.0

     negative rho (up, down):  2.422E-03 0.000E+00
 
     Adding external electric field

     Computed dipole along edir(3) : 
        Dipole                0.0728 Ry au,          0.1850 Debye
        Dipole field          0.0005 Ry au
 
        Potential amp.       -0.0345 Ry
        Total length         35.2972 bohr
 

     total cpu time spent up to now is       24.9 secs

     total energy              =   -1205.82218174 Ry
     Harris-Foulkes estimate   =   -1205.82218056 Ry
     estimated scf accuracy    <       0.00000536 Ry

     iteration # 14     ecut=    29.40 Ry     beta=0.10
     Davidson diagonalization with overlap
     ethr =  6.39E-09,  avg # of iterations =  1.0

     negative rho (up, down):  2.438E-03 0.000E+00
 
     Adding external electric field

     Computed dipole along edir(3) : 
        Dipole                0.0722 Ry au,          0.1835 Debye
        Dipole field          0.0005 Ry au
 
        Potential amp.       -0.0342 Ry
        Total length         35.2972 bohr
 

     total cpu time spent up to now is       26.2 secs

     total energy              =   -1205.82218324 Ry
     Harris-Foulkes estimate   =   -1205.82218301 Ry
     estimated scf accuracy    <       0.00000150 Ry

     iteration # 15     ecut=    29.40 Ry     beta=0.10
     Davidson diagonalization with overlap
     ethr =  1.79E-09,  avg # of iterations =  2.0

     negative rho (up, down):  2.473E-03 0.000E+00
 
     Adding external electric field

     Computed dipole along edir(3) : 
        Dipole                0.0696 Ry au,          0.1770 Debye
        Dipole field          0.0005 Ry au
 
        Potential amp.       -0.0330 Ry
        Total length         35.2972 bohr
 

     total cpu time spent up to now is       27.7 secs

     End of self-consistent calculation

          k = 0.0000 0.0000 0.0000 (  5071 PWs)   bands (ev):

   -90.6982 -90.4446 -90.4008 -90.2457 -54.2140 -54.1687 -54.0754 -53.9745
   -53.8844 -53.8628 -53.8477 -53.8390 -53.8106 -53.7178 -53.6830 -53.6573
   -14.9468  -5.8217  -5.3771  -4.7247  -4.6138  -4.3937  -4.3416  -3.5741
    -3.2322  -3.1559  -3.1185  -3.0661  -3.0347  -2.9312  -2.7119  -2.3031
    -2.1591  -2.0541  -1.9578  -1.7028  -1.6470  -1.5947  -1.3795  -1.3034
    -0.1750   0.6626   1.1299   2.5390   3.5583   4.8617   5.3086   5.8678
     6.3470   6.8155   7.6129   8.1608   9.2076   9.3409   9.5607  10.0383
    10.7539  10.8402  11.2452  11.5373  11.7211  12.2001  12.5811  12.8637
    13.1649  13.7660  14.0874  14.4468  15.0373  15.1679  15.7872  16.5501

          k = 0.0000 0.0998 0.0000 (  5031 PWs)   bands (ev):

   -90.6953 -90.4412 -90.3985 -90.2429 -54.2095 -54.1627 -54.1143 -53.9555
   -53.9209 -53.8847 -53.8673 -53.8489 -53.8086 -53.7207 -53.6961 -53.6801
   -14.5173  -5.7539  -4.7426  -4.4176  -4.2289  -3.9562  -3.8660  -3.6116
    -3.4940  -3.3846  -3.1696  -3.0075  -2.8773  -2.7238  -2.6560  -2.5460
    -2.4235  -2.3363  -2.2040  -2.0895  -1.9141  -1.7198  -1.5651  -0.9420
    -0.4842   1.3333   2.0865   3.0443   5.0217   6.2615   6.5115   7.0858
     7.8684   8.1469   8.3821   8.8189   9.0528   9.4749   9.7844  10.5880
    10.6263  10.9019  11.0948  11.4591  11.9682  12.3387  12.4620  13.3069
    13.5605  13.6456  14.1430  14.4382  14.9097  15.0710  15.5224  15.5727

          k = 0.0000-0.1996 0.0000 (  5048 PWs)   bands (ev):

   -90.6924 -90.4382 -90.3958 -90.2401 -54.2065 -54.1681 -54.1480 -53.9729
   -53.9660 -53.8928 -53.8690 -53.8467 -53.8056 -53.7317 -53.7172 -53.6795
   -13.9980  -6.4948  -4.9663  -4.7930  -4.5843  -4.5314  -4.2949  -4.0452
    -3.7546  -3.5697  -3.0246  -2.8161  -2.6950  -2.3572  -2.0603  -1.8928
    -1.7769  -1.7660  -1.4581  -1.3705  -1.3355  -1.2346  -0.8979  -0.1760
     1.7351   2.3682   2.7547   3.2749   4.7744   6.1060   6.2011   6.4373
     8.0936   8.3249   9.0068  10.0586  10.2979  10.6064  10.6659  10.7453
    11.0705  11.1524  11.3181  11.3871  11.6216  12.1195  12.3148  12.4361
    12.5973  12.6886  13.0983  13.2970  13.5643  13.6882  14.2566  14.4444

          k =-0.0864 0.0499 0.0000 (  5024 PWs)   bands (ev):

   -90.6981 -90.4438 -90.4016 -90.2458 -54.2132 -54.1615 -54.0740 -53.9363
   -53.8909 -53.8776 -53.8540 -53.8450 -53.8159 -53.7254 -53.6822 -53.6571
   -14.9343  -5.6304  -4.9421  -4.3528  -4.1156  -4.0480  -3.9268  -3.5898
    -3.4404  -3.3569  -3.1719  -3.0169  -2.7723  -2.6482  -2.5875  -2.5411
    -2.4316  -2.3572  -2.2958  -2.2062  -2.1513  -1.9006  -1.6549  -1.5853
    -1.0724  -0.3052   1.5255   2.3716   3.4450   5.3989   6.1755   6.4183
     6.6651   6.8602   7.3974   7.8540   8.2810   8.6346   9.4743  10.0080
    10.4631  10.8828  11.3657  11.8566  12.1297  12.7255  13.7729  13.9324
    14.5152  14.6396  15.4554  15.7179  15.9327  16.2301  16.4612  17.2420

          k =-0.0864 0.1497 0.0000 (  5031 PWs)   bands (ev):

   -90.6953 -90.4412 -90.3985 -90.2429 -54.2095 -54.1612 -54.1161 -53.9541
   -53.9219 -53.8883 -53.8640 -53.8487 -53.8090 -53.7200 -53.6964 -53.6802
   -14.5172  -5.7417  -4.7350  -4.4168  -4.1469  -3.9106  -3.8723  -3.7413
    -3.4876  -3.3967  -3.1767  -3.0447  -2.8768  -2.7445  -2.6304  -2.5419
    -2.4613  -2.3353  -2.2363  -2.0917  -1.9817  -1.7018  -1.6102  -0.8014
    -0.4679   1.5458   2.0262   3.1571   4.8578   6.2168   6.4922   7.0331
     7.8093   8.1177   8.2669   8.8022   8.9777   9.4576   9.7426  10.5295
    10.6892  10.8772  11.1930  11.6524  11.9862  12.2696  12.5266  13.4839
    13.6234  13.8411  14.1778  14.5786  14.8516  15.0955  15.5033  15.5825

          k =-0.0864-0.1497 0.0000 (  5038 PWs)   bands (ev):

   -90.6924 -90.4382 -90.3959 -90.2401 -54.2061 -54.1653 -54.1445 -53.9592
   -53.9299 -53.9285 -53.8829 -53.8480 -53.8067 -53.7357 -53.7195 -53.6790
   -14.0051  -6.4893  -4.8019  -4.1862  -3.9610  -3.8862  -3.7444  -3.6970
    -3.6301  -3.4260  -3.1854  -3.1127  -2.9437  -2.8981  -2.7529  -2.6989
    -2.3808  -2.2841  -1.9926  -1.8663  -1.6500  -1.4405  -0.7152   0.0664
     1.4638   1.9249   2.9316   4.3369   5.5193   7.6759   7.9385   8.0771
     8.3629   8.6035   8.8692   9.1764   9.4844   9.6401  10.0085  10.1078
    10.4579  10.7244  10.9534  11.3301  11.7924  11.9842  12.2906  12.5118
    12.9126  13.6306  13.6520  13.8984  14.3472  14.6708  14.8629  14.9309

     the Fermi energy is     1.8082 ev

!    total energy              =   -1205.82218764 Ry
     Harris-Foulkes estimate   =   -1205.82218587 Ry
     estimated scf accuracy    <       0.00000038 Ry

     The total energy is the sum of the following terms:

     one-electron contribution =   -6068.13149923 Ry
     hartree contribution      =    3031.80725455 Ry
     xc contribution           =    -123.27841718 Ry
     ewald contribution        =    1953.78648811 Ry
     electric field correction =       0.00003253 Ry
     smearing contrib. (-TS)   =      -0.00604642 Ry

     convergence has been achieved in  15 iterations

     Forces acting on atoms (Ry/au):


     negative rho (up, down):  2.473E-03 0.000E+00
     atom    1 type  1   force =    -0.00239373    0.00221061   -0.00508330
     atom    2 type  1   force =     0.00241429   -0.00184647   -0.00918919
     atom    3 type  1   force =     0.00647181   -0.01105292    0.03313630
     atom    4 type  1   force =    -0.03858813    0.02133180   -0.04905637
     atom    5 type  2   force =     0.04318015   -0.00231934    0.06400134
     atom    6 type  3   force =    -0.01240261    0.02712030   -0.00915137
     atom    7 type  3   force =     0.01330960   -0.04057944    0.01747299
     atom    8 type  3   force =    -0.01199137    0.00513545   -0.04213041

     Total force =     0.129446     Total SCF correction =     0.004513
 !ASE
     Check: negative starting charge=   -0.002429
     NEW-OLD atomic charge density approx. for the potential
     Check: negative starting charge=   -0.002448

     negative rho (up, down):  2.568E-03 0.000E+00
 
     Adding external electric field

     Computed dipole along edir(3) : 
        Dipole                0.0696 Ry au,          0.1770 Debye
        Dipole field          0.0005 Ry au
 
        Potential amp.       -0.0330 Ry
        Total length         35.2972 bohr
 

     total cpu time spent up to now is       28.9 secs

     per-process dynamical memory:    31.3 Mb

     Self-consistent Calculation

     iteration #  1     ecut=    29.40 Ry     beta=0.10
     Davidson diagonalization with overlap
     ethr =  1.79E-09,  avg # of iterations = 10.2

     negative rho (up, down):  2.541E-03 0.000E+00
 
     Adding external electric field

     Computed dipole along edir(3) : 
        Dipole               -0.0019 Ry au,         -0.0049 Debye
        Dipole field         -0.0000 Ry au
 
        Potential amp.        0.0009 Ry
        Total length         35.2972 bohr
 

     total cpu time spent up to now is       33.0 secs

     total energy              =   -1205.81357641 Ry
     Harris-Foulkes estimate   =   -1205.81739942 Ry
     estimated scf accuracy    <       0.02596744 Ry

     iteration #  2     ecut=    29.40 Ry     beta=0.10
     Davidson diagonalization with overlap
     ethr =  3.09E-05,  avg # of iterations =  3.2

     negative rho (up, down):  2.522E-03 0.000E+00
 
     Adding external electric field

     Computed dipole along edir(3) : 
        Dipole                0.0316 Ry au,          0.0803 Debye
        Dipole field          0.0002 Ry au
 
        Potential amp.       -0.0150 Ry
        Total length         35.2972 bohr
 

     total cpu time spent up to now is       34.7 secs

     total energy              =   -1205.81358401 Ry
     Harris-Foulkes estimate   =   -1205.81557408 Ry
     estimated scf accuracy    <       0.02453216 Ry

     iteration #  3     ecut=    29.40 Ry     beta=0.10
     Davidson diagonalization with overlap
     ethr =  2.92E-05,  avg # of iterations =  2.3

     negative rho (up, down):  2.584E-03 0.000E+00
 
     Adding external electric field

     Computed dipole along edir(3) : 
        Dipole               -0.0100 Ry au,         -0.0254 Debye
        Dipole field         -0.0001 Ry au
 
        Potential amp.        0.0047 Ry
        Total length         35.2972 bohr
 

     total cpu time spent up to now is       36.2 secs

     total energy              =   -1205.81066535 Ry
     Harris-Foulkes estimate   =   -1205.81439267 Ry
     estimated scf accuracy    <       0.00948334 Ry

     iteration #  4     ecut=    29.40 Ry     beta=0.10
     Davidson diagonalization with overlap
     ethr =  1.13E-05,  avg # of iterations =  4.8

     negative rho (up, down):  2.662E-03 0.000E+00
 
     Adding external electric field

     Computed dipole along edir(3) : 
        Dipole               -0.0015 Ry au,         -0.0038 Debye
        Dipole field         -0.0000 Ry au
 
        Potential amp.        0.0007 Ry
        Total length         35.2972 bohr
 

     total cpu time spent up to now is       38.2 secs

     total energy              =   -1205.81147717 Ry
     Harris-Foulkes estimate   =   -1205.81177276 Ry
     estimated scf accuracy    <       0.00153672 Ry

     iteration #  5     ecut=    29.40 Ry     beta=0.10
     Davidson diagonalization with overlap
     ethr =  1.83E-06,  avg # of iterations =  3.7

     negative rho (up, down):  2.658E-03 0.000E+00
 
     Adding external electric field

     Computed dipole along edir(3) : 
        Dipole               -0.0060 Ry au,         -0.0153 Debye
        Dipole field         -0.0000 Ry au
 
        Potential amp.        0.0028 Ry
        Total length         35.2972 bohr
 

     total cpu time spent up to now is       39.9 secs

     total energy              =   -1205.81156486 Ry
     Harris-Foulkes estimate   =   -1205.81164011 Ry
     estimated scf accuracy    <       0.00078203 Ry

     iteration #  6     ecut=    29.40 Ry     beta=0.10
     Davidson diagonalization with overlap
     ethr =  9.31E-07,  avg # of iterations =  1.3

     negative rho (up, down):  2.727E-03 0.000E+00
 
     Adding external electric field

     Computed dipole along edir(3) : 
        Dipole                0.0092 Ry au,          0.0234 Debye
        Dipole field          0.0001 Ry au
 
        Potential amp.       -0.0044 Ry
        Total length         35.2972 bohr
 

     total cpu time spent up to now is       41.3 secs

     total energy              =   -1205.81160571 Ry
     Harris-Foulkes estimate   =   -1205.81162961 Ry
     estimated scf accuracy    <       0.00045211 Ry

     iteration #  7     ecut=    29.40 Ry     beta=0.10
     Davidson diagonalization with overlap
     ethr =  5.38E-07,  avg # of iterations =  4.0

     negative rho (up, down):  2.714E-03 0.000E+00
 
     Adding external electric field

     Computed dipole along edir(3) : 
        Dipole                0.0116 Ry au,          0.0294 Debye
        Dipole field          0.0001 Ry au
 
        Potential amp.       -0.0055 Ry
        Total length         35.2972 bohr
 

     total cpu time spent up to now is       43.1 secs

     total energy              =   -1205.81162634 Ry
     Harris-Foulkes estimate   =   -1205.81162868 Ry
     estimated scf accuracy    <       0.00005733 Ry

     iteration #  8     ecut=    29.40 Ry     beta=0.10
     Davidson diagonalization with overlap
     ethr =  6.82E-08,  avg # of iterations =  1.0

     negative rho (up, down):  2.678E-03 0.000E+00
 
     Adding external electric field

     Computed dipole along edir(3) : 
        Dipole                0.0104 Ry au,          0.0265 Debye
        Dipole field          0.0001 Ry au
 
        Potential amp.       -0.0049 Ry
        Total length         35.2972 bohr
 

     total cpu time spent up to now is       44.4 secs

     total energy              =   -1205.81163398 Ry
     Harris-Foulkes estimate   =   -1205.81163222 Ry
     estimated scf accuracy    <       0.00001613 Ry

     iteration #  9     ecut=    29.40 Ry     beta=0.10
     Davidson diagonalization with overlap
     ethr =  1.92E-08,  avg # of iterations =  1.0

     negative rho (up, down):  2.651E-03 0.000E+00
 
     Adding external electric field

     Computed dipole along edir(3) : 
        Dipole                0.0106 Ry au,          0.0270 Debye
        Dipole field          0.0001 Ry au
 
        Potential amp.       -0.0050 Ry
        Total length         35.2972 bohr
 

     total cpu time spent up to now is       45.7 secs

     total energy              =   -1205.81163587 Ry
     Harris-Foulkes estimate   =   -1205.81163480 Ry
     estimated scf accuracy    <       0.00000479 Ry

     iteration # 10     ecut=    29.40 Ry     beta=0.10
     Davidson diagonalization with overlap
     ethr =  5.70E-09,  avg # of iterations =  2.0

     negative rho (up, down):  2.617E-03 0.000E+00
 
     Adding external electric field

     Computed dipole along edir(3) : 
        Dipole                0.0104 Ry au,          0.0264 Debye
        Dipole field          0.0001 Ry au
 
        Potential amp.       -0.0049 Ry
        Total length         35.2972 bohr
 

     total cpu time spent up to now is       47.2 secs

     total energy              =   -1205.81163783 Ry
     Harris-Foulkes estimate   =   -1205.81163657 Ry
     estimated scf accuracy    <       0.00000259 Ry

     iteration # 11     ecut=    29.40 Ry     beta=0.10
     Davidson diagonalization with overlap
     ethr =  3.08E-09,  avg # of iterations =  1.0

     negative rho (up, down):  2.461E-03 0.000E+00
 
     Adding external electric field

     Computed dipole along edir(3) : 
        Dipole                0.0085 Ry au,          0.0216 Debye
        Dipole field          0.0001 Ry au
 
        Potential amp.       -0.0040 Ry
        Total length         35.2972 bohr
 

     total cpu time spent up to now is       48.5 secs

     End of self-consistent calculation

          k = 0.0000 0.0000 0.0000 (  5071 PWs)   bands (ev):

   -90.8268 -90.6048 -90.5732 -90.3867 -54.3498 -54.2817 -54.1996 -54.1391
   -54.0481 -54.0264 -54.0122 -54.0101 -53.9782 -53.8591 -53.8250 -53.7974
   -14.8159  -6.0224  -5.5371  -4.9033  -4.7411  -4.5167  -4.4813  -3.6449
    -3.3351  -3.2975  -3.2648  -3.2333  -3.2033  -3.0429  -2.8613  -2.4009
    -2.3180  -2.1769  -2.0506  -1.8583  -1.7825  -1.6964  -1.5384  -1.4449
     0.1446   0.4803   1.1296   2.3861   3.3901   5.0550   5.2369   5.8251
     6.3174   6.7977   7.3265   8.1729   8.7381   8.9134   9.4258  10.3742
    10.6331  11.0118  11.2921  11.7079  11.7829  12.2031  12.5660  12.8875
    13.1675  13.5831  14.1094  14.6570  14.7986  15.2643  15.9163  16.4233

          k = 0.0000 0.0998 0.0000 (  5031 PWs)   bands (ev):

   -90.8239 -90.6012 -90.5712 -90.3839 -54.3441 -54.2756 -54.2397 -54.1197
   -54.0825 -54.0590 -54.0354 -54.0073 -53.9774 -53.8621 -53.8360 -53.8222
   -14.3723  -5.9620  -4.9726  -4.3551  -4.2694  -4.0768  -3.9786  -3.7520
    -3.6254  -3.4637  -3.3224  -3.1506  -3.0434  -2.8771  -2.7965  -2.7014
    -2.5358  -2.4889  -2.3448  -2.2314  -2.0368  -1.8718  -1.7125  -1.0218
    -0.5771   1.1390   1.8759   3.0086   4.8665   6.4076   6.4960   7.1448
     7.8554   8.0152   8.2632   8.7044   9.2029   9.4858   9.8225  10.4508
    10.6110  10.7451  11.0687  11.1694  11.8545  12.2659  12.5426  13.3863
    13.5698  13.6837  13.9995  14.3315  14.7684  15.1722  15.5325  15.5856

          k = 0.0000-0.1996 0.0000 (  5048 PWs)   bands (ev):

   -90.8211 -90.5981 -90.5685 -90.3811 -54.3408 -54.2861 -54.2688 -54.1354
   -54.1340 -54.0599 -54.0399 -54.0042 -53.9745 -53.8734 -53.8574 -53.8210
   -13.8311  -6.6497  -5.0600  -4.7777  -4.7189  -4.6755  -4.4344  -4.2153
    -3.8314  -3.6680  -3.0859  -2.9318  -2.8326  -2.5080  -2.2214  -2.0398
    -1.9426  -1.9141  -1.5933  -1.5337  -1.5032  -1.3717  -1.1201  -0.2642
     1.4942   2.1918   2.5889   3.0972   4.6322   5.9409   6.0017   6.2852
     8.0745   8.1893   9.4891  10.2374  10.3984  10.5564  10.5784  10.7637
    11.1212  11.1806  11.3543  11.5315  11.7469  12.1045  12.2818  12.3678
    12.6194  12.7249  13.1046  13.1751  13.6070  13.6214  14.3440  14.3610

          k =-0.0864 0.0499 0.0000 (  5024 PWs)   bands (ev):

   -90.8267 -90.6037 -90.5743 -90.3867 -54.3468 -54.2765 -54.1983 -54.0972
   -54.0634 -54.0388 -54.0198 -54.0109 -53.9846 -53.8668 -53.8244 -53.7974
   -14.8043  -5.7724  -5.1140  -4.4605  -4.2961  -4.2207  -4.0875  -3.7275
    -3.5965  -3.4637  -3.2981  -3.0245  -2.8961  -2.8173  -2.7370  -2.7001
    -2.5833  -2.4957  -2.4512  -2.3358  -2.2437  -2.0099  -1.8288  -1.7378
    -1.1678  -0.0573   1.3549   2.1006   3.4765   5.3508   6.2889   6.5376
     6.6867   6.8547   7.5045   7.9193   8.2548   8.3758   9.4084   9.6556
    10.5265  10.8808  11.2892  11.6891  12.0298  12.9569  13.7516  13.9139
    14.2965  14.5577  15.2988  15.7017  16.0143  16.2054  16.4054  16.9583

          k =-0.0864 0.1497 0.0000 (  5031 PWs)   bands (ev):

   -90.8239 -90.6012 -90.5712 -90.3839 -54.3441 -54.2746 -54.2409 -54.1185
   -54.0832 -54.0619 -54.0327 -54.0072 -53.9777 -53.8612 -53.8366 -53.8223
   -14.3722  -5.9560  -5.0071  -4.3558  -4.1981  -4.0452  -3.9118  -3.8813
    -3.5817  -3.4842  -3.3251  -3.1887  -3.0255  -2.8939  -2.7837  -2.6868
    -2.5446  -2.4831  -2.3822  -2.2402  -2.1120  -1.8621  -1.7530  -0.9008
    -0.6047   1.3132   1.8285   3.0921   4.7199   6.3860   6.4802   7.0470
     7.8149   8.0366   8.1356   8.6915   9.1981   9.3657   9.8278  10.5257
    10.6452  10.8643  11.0636  11.3223  11.8475  12.1849  12.6826  13.4551
    13.6469  13.7274  14.1380  14.5181  14.8515  15.0350  15.5209  15.6215

          k =-0.0864-0.1497 0.0000 (  5038 PWs)   bands (ev):

   -90.8211 -90.5981 -90.5686 -90.3811 -54.3392 -54.2839 -54.2656 -54.1199
   -54.1039 -54.0902 -54.0555 -54.0051 -53.9753 -53.8778 -53.8599 -53.8205
   -13.8374  -6.6529  -4.5372  -4.4444  -4.1019  -4.0295  -3.9050  -3.8616
    -3.7944  -3.5077  -3.2954  -3.2199  -3.1035  -3.0501  -2.9020  -2.8497
    -2.4936  -2.4367  -2.1448  -2.0235  -1.8106  -1.5968  -0.9575  -0.0400
     1.3448   1.7428   2.8528   4.1482   5.3741   7.6418   7.7672   7.9564
     8.2852   8.7075   8.9222   9.3122   9.4082   9.6479   9.7373  10.2517
    10.5188  10.6743  10.9297  11.1647  11.7036  11.8003  12.0799  12.5170
    13.0204  13.5630  13.6376  14.1809  14.2393  14.5288  14.7194  15.0425

     the Fermi energy is     1.6043 ev

!    total energy              =   -1205.81164437 Ry
     Harris-Foulkes estimate   =   -1205.81163817 Ry
     estimated scf accuracy    <       0.00000017 Ry

     The total energy is the sum of the following terms:

     one-electron contribution =   -6038.53652311 Ry
     hartree contribution      =    3016.68524306 Ry
     xc contribution           =    -123.26363167 Ry
     ewald contribution        =    1939.30934847 Ry
     electric field correction =       0.00000048 Ry
     smearing contrib. (-TS)   =      -0.00608161 Ry

     convergence has been achieved in  11 iterations

     Forces acting on atoms (Ry/au):


     negative rho (up, down):  2.461E-03 0.000E+00
     atom    1 type  1   force =    -0.00264519    0.00252761   -0.00372088
     atom    2 type  1   force =     0.00240258   -0.00242518   -0.01026110
     atom    3 type  1   force =     0.00595203   -0.01050231    0.02914188
     atom    4 type  1   force =    -0.01235265    0.01547085   -0.00776206
     atom    5 type  2   force =     0.09110590   -0.22317157   -0.18859118
     atom    6 type  3   force =    -0.09758811    0.12042058    0.18249390
     atom    7 type  3   force =     0.02984191    0.08838708    0.02563452
     atom    8 type  3   force =    -0.01671648    0.00929294   -0.02693508

     Total force =     0.403787     Total SCF correction =     0.002147
 !ASE
     Check: negative starting charge=   -0.002448
     NEW-OLD atomic charge density approx. for the potential
     Check: negative starting charge=   -0.002439

     negative rho (up, down):  2.509E-03 0.000E+00
 
     Adding external electric field

     Computed dipole along edir(3) : 
        Dipole                0.0085 Ry au,          0.0216 Debye
        Dipole field          0.0001 Ry au
 
        Potential amp.       -0.0040 Ry
        Total length         35.2972 bohr
 

     total cpu time spent up to now is       49.7 secs

     per-process dynamical memory:    31.3 Mb

     Self-consistent Calculation

     iteration #  1     ecut=    29.40 Ry     beta=0.10
     Davidson diagonalization with overlap
     ethr =  3.08E-09,  avg # of iterations =  7.0

     negative rho (up, down):  2.498E-03 0.000E+00
 
     Adding external electric field

     Computed dipole along edir(3) : 
        Dipole                0.0436 Ry au,          0.1108 Debye
        Dipole field          0.0003 Ry au
 
        Potential amp.       -0.0207 Ry
        Total length         35.2972 bohr
 

     total cpu time spent up to now is       53.2 secs

     total energy              =   -1205.83033387 Ry
     Harris-Foulkes estimate   =   -1205.83142666 Ry
     estimated scf accuracy    <       0.00805779 Ry

     iteration #  2     ecut=    29.40 Ry     beta=0.10
     Davidson diagonalization with overlap
     ethr =  9.59E-06,  avg # of iterations =  3.3

     negative rho (up, down):  2.490E-03 0.000E+00
 
     Adding external electric field

     Computed dipole along edir(3) : 
        Dipole                0.0300 Ry au,          0.0761 Debye
        Dipole field          0.0002 Ry au
 
        Potential amp.       -0.0142 Ry
        Total length         35.2972 bohr
 

     total cpu time spent up to now is       54.8 secs

     total energy              =   -1205.83015262 Ry
     Harris-Foulkes estimate   =   -1205.83072540 Ry
     estimated scf accuracy    <       0.00682732 Ry

     iteration #  3     ecut=    29.40 Ry     beta=0.10
     Davidson diagonalization with overlap
     ethr =  8.13E-06,  avg # of iterations =  1.7

     negative rho (up, down):  2.522E-03 0.000E+00
 
     Adding external electric field

     Computed dipole along edir(3) : 
        Dipole                0.0631 Ry au,          0.1603 Debye
        Dipole field          0.0004 Ry au
 
        Potential amp.       -0.0299 Ry
        Total length         35.2972 bohr
 

     total cpu time spent up to now is       56.2 secs

     total energy              =   -1205.82886403 Ry
     Harris-Foulkes estimate   =   -1205.83031446 Ry
     estimated scf accuracy    <       0.00365913 Ry

     iteration #  4     ecut=    29.40 Ry     beta=0.10
     Davidson diagonalization with overlap
     ethr =  4.36E-06,  avg # of iterations =  4.5

     negative rho (up, down):  2.558E-03 0.000E+00
 
     Adding external electric field

     Computed dipole along edir(3) : 
        Dipole                0.0569 Ry au,          0.1447 Debye
        Dipole field          0.0004 Ry au
 
        Potential amp.       -0.0270 Ry
        Total length         35.2972 bohr
 

     total cpu time spent up to now is       58.2 secs

     total energy              =   -1205.82927308 Ry
     Harris-Foulkes estimate   =   -1205.82935659 Ry
     estimated scf accuracy    <       0.00044313 Ry

     iteration #  5     ecut=    29.40 Ry     beta=0.10
     Davidson diagonalization with overlap
     ethr =  5.28E-07,  avg # of iterations =  2.2

     negative rho (up, down):  2.573E-03 0.000E+00
 
     Adding external electric field

     Computed dipole along edir(3) : 
        Dipole                0.0515 Ry au,          0.1310 Debye
        Dipole field          0.0003 Ry au
 
        Potential amp.       -0.0244 Ry
        Total length         35.2972 bohr
 

     total cpu time spent up to now is       59.7 secs

     total energy              =   -1205.82931158 Ry
     Harris-Foulkes estimate   =   -1205.82931256 Ry
     estimated scf accuracy    <       0.00009733 Ry

     iteration #  6     ecut=    29.40 Ry     beta=0.10
     Davidson diagonalization with overlap
     ethr =  1.16E-07,  avg # of iterations =  2.3

     negative rho (up, down):  2.574E-03 0.000E+00
 
     Adding external electric field

     Computed dipole along edir(3) : 
        Dipole                0.0489 Ry au,          0.1242 Debye
        Dipole field          0.0003 Ry au
 
        Potential amp.       -0.0231 Ry
        Total length         35.2972 bohr
 

     total cpu time spent up to now is       61.2 secs

     total energy              =   -1205.82931581 Ry
     Harris-Foulkes estimate   =   -1205.82931866 Ry
     estimated scf accuracy    <       0.00004305 Ry

     iteration #  7     ecut=    29.40 Ry     beta=0.10
     Davidson diagonalization with overlap
     ethr =  5.13E-08,  avg # of iterations =  2.0

     negative rho (up, down):  2.566E-03 0.000E+00
 
     Adding external electric field

     Computed dipole along edir(3) : 
        Dipole                0.0484 Ry au,          0.1231 Debye
        Dipole field          0.0003 Ry au
 
        Potential amp.       -0.0229 Ry
        Total length         35.2972 bohr
 

     total cpu time spent up to now is       62.7 secs

     total energy              =   -1205.82932087 Ry
     Harris-Foulkes estimate   =   -1205.82932020 Ry
     estimated scf accuracy    <       0.00001543 Ry

     iteration #  8     ecut=    29.40 Ry     beta=0.10
     Davidson diagonalization with overlap
     ethr =  1.84E-08,  avg # of iterations =  1.0

     negative rho (up, down):  2.556E-03 0.000E+00
 
     Adding external electric field

     Computed dipole along edir(3) : 
        Dipole                0.0488 Ry au,          0.1239 Debye
        Dipole field          0.0003 Ry au
 
        Potential amp.       -0.0231 Ry
        Total length         35.2972 bohr
 

     total cpu time spent up to now is       64.0 secs

     total energy              =   -1205.82932254 Ry
     Harris-Foulkes estimate   =   -1205.82932141 Ry
     estimated scf accuracy    <       0.00000279 Ry

     iteration #  9     ecut=    29.40 Ry     beta=0.10
     Davidson diagonalization with overlap
     ethr =  3.33E-09,  avg # of iterations =  2.0

     negative rho (up, down):  2.471E-03 0.000E+00
 
     Adding external electric field

     Computed dipole along edir(3) : 
        Dipole                0.0489 Ry au,          0.1242 Debye
        Dipole field          0.0003 Ry au
 
        Potential amp.       -0.0232 Ry
        Total length         35.2972 bohr
 

     total cpu time spent up to now is       65.4 secs

     End of self-consistent calculation

          k = 0.0000 0.0000 0.0000 (  5071 PWs)   bands (ev):

   -90.7381 -90.5081 -90.4691 -90.2973 -54.2501 -54.2075 -54.1147 -54.0396
   -53.9491 -53.9270 -53.9127 -53.9071 -53.8765 -53.7697 -53.7353 -53.7087
   -14.8563  -5.8918  -5.4345  -4.7908  -4.6576  -4.4172  -4.4077  -3.5861
    -3.2573  -3.2063  -3.1730  -3.1367  -3.0994  -2.9771  -2.7685  -2.3367
    -2.2195  -2.1036  -1.9891  -1.7616  -1.6961  -1.6365  -1.4399  -1.3557
    -0.0595   0.5913   1.1256   2.4803   3.5040   4.9351   5.2805   5.8664
     6.3215   6.8082   7.5205   8.1891   9.0644   9.1648   9.4910  10.1454
    10.7318  10.8830  11.2722  11.6070  11.7369  12.1934  12.5694  12.8810
    13.1589  13.6953  14.1016  14.5250  14.9390  15.1975  15.8430  16.5077

          k = 0.0000 0.0998 0.0000 (  5031 PWs)   bands (ev):

   -90.7352 -90.5047 -90.4668 -90.2946 -54.2450 -54.2014 -54.1542 -54.0204
   -53.9849 -53.9535 -53.9338 -53.9115 -53.8749 -53.7727 -53.7475 -53.7323
   -14.4151  -5.8514  -4.8042  -4.3380  -4.2644  -4.0002  -3.9114  -3.6662
    -3.5461  -3.4150  -3.2287  -3.0616  -2.9425  -2.7825  -2.7090  -2.6066
    -2.4682  -2.3938  -2.2582  -2.1429  -1.9601  -1.7773  -1.6211  -0.9789
    -0.5187   1.2592   2.0056   3.0341   4.9740   6.3503   6.4698   7.1245
     7.8658   8.0941   8.3397   8.8051   9.0868   9.4832   9.8056  10.5560
    10.6280  10.8455  11.0855  11.3564  11.9439  12.3426  12.4938  13.3361
    13.5613  13.6384  14.0930  14.3686  14.8624  15.1056  15.5304  15.5758

          k = 0.0000-0.1996 0.0000 (  5048 PWs)   bands (ev):

   -90.7323 -90.5016 -90.4642 -90.2918 -54.2416 -54.2070 -54.1883 -54.0371
   -54.0324 -53.9591 -53.9366 -53.9089 -53.8719 -53.7839 -53.7687 -53.7314
   -13.8777  -6.5890  -4.8898  -4.8585  -4.6347  -4.5856  -4.3493  -4.1114
    -3.7738  -3.6059  -3.0394  -2.8699  -2.7504  -2.4159  -2.1217  -1.9480
    -1.8398  -1.8223  -1.5043  -1.4345  -1.4010  -1.2843  -0.9819  -0.2145
     1.6418   2.3005   2.6911   3.2076   4.7310   6.0431   6.1311   6.3846
     8.0908   8.2767   9.2576  10.2264  10.2573  10.5896  10.6432  10.7380
    11.0713  11.1592  11.3391  11.4465  11.6627  12.1153  12.3013  12.4137
    12.6051  12.7006  13.1209  13.2551  13.5782  13.6620  14.2900  14.4231

          k =-0.0864 0.0499 0.0000 (  5024 PWs)   bands (ev):

   -90.7380 -90.5073 -90.4699 -90.2974 -54.2485 -54.2008 -54.1134 -54.0002
   -53.9591 -53.9415 -53.9159 -53.9140 -53.8821 -53.7775 -53.7346 -53.7086
   -14.8439  -5.6832  -4.9883  -4.3871  -4.1778  -4.1165  -3.9897  -3.6392
    -3.4981  -3.3954  -3.2155  -3.0079  -2.8185  -2.7141  -2.6418  -2.6020
    -2.4869  -2.4088  -2.3553  -2.2449  -2.1950  -1.9435  -1.7187  -1.6434
    -1.1109  -0.2212   1.4518   2.2692   3.4642   5.4189   6.2170   6.4682
     6.6506   6.8684   7.4352   7.8745   8.2669   8.5698   9.5088   9.7900
    10.4822  10.8839  11.3297  11.7958  12.0908  12.8249  13.7886  13.9125
    14.4268  14.6025  15.3957  15.7839  15.9621  16.1807  16.4025  17.1467

          k =-0.0864 0.1497 0.0000 (  5031 PWs)   bands (ev):

   -90.7352 -90.5047 -90.4668 -90.2946 -54.2450 -54.2000 -54.1558 -54.0191
   -53.9858 -53.9568 -53.9306 -53.9114 -53.8753 -53.7719 -53.7479 -53.7325
   -14.4151  -5.8411  -4.8258  -4.3303  -4.1730  -3.9547  -3.8968  -3.7993
    -3.5223  -3.4365  -3.2335  -3.0995  -2.9344  -2.8023  -2.6879  -2.5976
    -2.4979  -2.3912  -2.2925  -2.1477  -2.0310  -1.7620  -1.6653  -0.8425
    -0.5204   1.4568   1.9510   3.1361   4.8139   6.3145   6.4547   7.0569
     7.8119   8.0935   8.2111   8.7882   9.0407   9.4194   9.7804  10.5300
    10.6789  10.8769  11.1473  11.5582  11.9453  12.2375  12.6319  13.4914
    13.6341  13.7462  14.1629  14.5509  14.8636  15.0477  15.5091  15.6029

          k =-0.0864-0.1497 0.0000 (  5038 PWs)   bands (ev):

   -90.7323 -90.5016 -90.4642 -90.2918 -54.2408 -54.2042 -54.1850 -54.0228
   -53.9982 -53.9930 -53.9511 -53.9100 -53.8728 -53.7882 -53.7712 -53.7310
   -13.8846  -6.5868  -4.6582  -4.2807  -4.0133  -3.9402  -3.8054  -3.7608
    -3.6905  -3.4594  -3.2231  -3.1509  -3.0056  -2.9572  -2.8116  -2.7572
    -2.4240  -2.3428  -2.0508  -1.9267  -1.7112  -1.4996  -0.8072   0.0261
     1.4195   1.8540   2.9043   4.2652   5.4661   7.6817   7.8777   8.0403
     8.3521   8.6810   8.8801   9.2140   9.4488   9.6455   9.9393  10.1506
    10.4788  10.7041  10.9499  11.2563  11.8020  11.9151  12.2438  12.4756
    12.9520  13.6230  13.6392  13.9994  14.2913  14.6491  14.8315  14.9577

     the Fermi energy is     1.7285 ev

!    total energy              =   -1205.82932677 Ry
     Harris-Foulkes estimate   =   -1205.82932263 Ry
     estimated scf accuracy    <       0.00000052 Ry

     The total energy is the sum of the following terms:

     one-electron contribution =   -6056.65791100 Ry
     hartree contribution      =    3025.95706150 Ry
     xc contribution           =    -123.27063960 Ry
     ewald contribution        =    1948.14815272 Ry
     electric field correction =       0.00001603 Ry
     smearing contrib. (-TS)   =      -0.00600642 Ry

     convergence has been achieved in   9 iterations

     Forces acting on atoms (Ry/au):


     negative rho (up, down):  2.471E-03 0.000E+00
     atom    1 type  1   force =    -0.00246830    0.00229916   -0.00414082
     atom    2 type  1   force =     0.00234527   -0.00203382   -0.00937729
     atom    3 type  1   force =     0.00617980   -0.01081504    0.03131421
     atom    4 type  1   force =    -0.02751580    0.01958360   -0.02938686
     atom    5 type  2   force =     0.04662560   -0.08635340   -0.02487734
     atom    6 type  3   force =    -0.03703566    0.05112710    0.05574029
     atom    7 type  3   force =     0.02492744    0.01994872    0.01772767
     atom    8 type  3   force =    -0.01305835    0.00624369   -0.03699987

     Total force =     0.153364     Total SCF correction =     0.004248
 !ASE
     Check: negative starting charge=   -0.002439
     NEW-OLD atomic charge density approx. for the potential
     Check: negative starting charge=   -0.002411

     negative rho (up, down):  2.456E-03 0.000E+00
 
     Adding external electric field

     Computed dipole along edir(3) : 
        Dipole                0.0489 Ry au,          0.1242 Debye
        Dipole field          0.0003 Ry au
 
        Potential amp.       -0.0232 Ry
        Total length         35.2972 bohr
 

     total cpu time spent up to now is       66.6 secs

     per-process dynamical memory:    31.3 Mb

     Self-consistent Calculation

     iteration #  1     ecut=    29.40 Ry     beta=0.10
     Davidson diagonalization with overlap
     ethr =  3.33E-09,  avg # of iterations =  9.7

     negative rho (up, down):  2.435E-03 0.000E+00
 
     Adding external electric field

     Computed dipole along edir(3) : 
        Dipole                0.1431 Ry au,          0.3637 Debye
        Dipole field          0.0010 Ry au
 
        Potential amp.       -0.0678 Ry
        Total length         35.2972 bohr
 

     total cpu time spent up to now is       70.7 secs

     total energy              =   -1205.82300188 Ry
     Harris-Foulkes estimate   =   -1205.83683377 Ry
     estimated scf accuracy    <       0.08971917 Ry

     iteration #  2     ecut=    29.40 Ry     beta=0.10
     Davidson diagonalization with overlap
     ethr =  1.07E-04,  avg # of iterations =  2.5

     negative rho (up, down):  2.423E-03 0.000E+00
 
     Adding external electric field

     Computed dipole along edir(3) : 
        Dipole                0.0531 Ry au,          0.1350 Debye
        Dipole field          0.0004 Ry au
 
        Potential amp.       -0.0252 Ry
        Total length         35.2972 bohr
 

     total cpu time spent up to now is       72.3 secs

     total energy              =   -1205.82642170 Ry
     Harris-Foulkes estimate   =   -1205.83310390 Ry
     estimated scf accuracy    <       0.07332641 Ry

     iteration #  3     ecut=    29.40 Ry     beta=0.10
     Davidson diagonalization with overlap
     ethr =  8.73E-05,  avg # of iterations =  2.8

     negative rho (up, down):  2.419E-03 0.000E+00
 
     Adding external electric field

     Computed dipole along edir(3) : 
        Dipole               -0.0015 Ry au,         -0.0039 Debye
        Dipole field         -0.0000 Ry au
 
        Potential amp.        0.0007 Ry
        Total length         35.2972 bohr
 

     total cpu time spent up to now is       73.9 secs

     total energy              =   -1205.82506564 Ry
     Harris-Foulkes estimate   =   -1205.82906980 Ry
     estimated scf accuracy    <       0.01754304 Ry

     iteration #  4     ecut=    29.40 Ry     beta=0.10
     Davidson diagonalization with overlap
     ethr =  2.09E-05,  avg # of iterations =  3.8

     negative rho (up, down):  2.477E-03 0.000E+00
 
     Adding external electric field

     Computed dipole along edir(3) : 
        Dipole               -0.0001 Ry au,         -0.0002 Debye
        Dipole field         -0.0000 Ry au
 
        Potential amp.        0.0000 Ry
        Total length         35.2972 bohr
 

     total cpu time spent up to now is       75.7 secs

     total energy              =   -1205.82507020 Ry
     Harris-Foulkes estimate   =   -1205.82612706 Ry
     estimated scf accuracy    <       0.00600620 Ry

     iteration #  5     ecut=    29.40 Ry     beta=0.10
     Davidson diagonalization with overlap
     ethr =  7.15E-06,  avg # of iterations =  2.5

     negative rho (up, down):  2.583E-03 0.000E+00
 
     Adding external electric field

     Computed dipole along edir(3) : 
        Dipole               -0.0228 Ry au,         -0.0581 Debye
        Dipole field         -0.0002 Ry au
 
        Potential amp.        0.0108 Ry
        Total length         35.2972 bohr
 

     total cpu time spent up to now is       77.3 secs

     total energy              =   -1205.82514321 Ry
     Harris-Foulkes estimate   =   -1205.82559476 Ry
     estimated scf accuracy    <       0.00328200 Ry

     iteration #  6     ecut=    29.40 Ry     beta=0.10
     Davidson diagonalization with overlap
     ethr =  3.91E-06,  avg # of iterations =  3.8

     negative rho (up, down):  2.613E-03 0.000E+00
 
     Adding external electric field

     Computed dipole along edir(3) : 
        Dipole               -0.0006 Ry au,         -0.0015 Debye
        Dipole field         -0.0000 Ry au
 
        Potential amp.        0.0003 Ry
        Total length         35.2972 bohr
 

     total cpu time spent up to now is       79.1 secs

     total energy              =   -1205.82534996 Ry
     Harris-Foulkes estimate   =   -1205.82566770 Ry
     estimated scf accuracy    <       0.00384358 Ry

     iteration #  7     ecut=    29.40 Ry     beta=0.10
     Davidson diagonalization with overlap
     ethr =  3.91E-06,  avg # of iterations =  3.5

     negative rho (up, down):  2.623E-03 0.000E+00
 
     Adding external electric field

     Computed dipole along edir(3) : 
        Dipole                0.0014 Ry au,          0.0036 Debye
        Dipole field          0.0000 Ry au
 
        Potential amp.       -0.0007 Ry
        Total length         35.2972 bohr
 

     total cpu time spent up to now is       80.8 secs

     total energy              =   -1205.82554467 Ry
     Harris-Foulkes estimate   =   -1205.82553779 Ry
     estimated scf accuracy    <       0.00011594 Ry

     iteration #  8     ecut=    29.40 Ry     beta=0.10
     Davidson diagonalization with overlap
     ethr =  1.38E-07,  avg # of iterations =  2.0

     negative rho (up, down):  2.599E-03 0.000E+00
 
     Adding external electric field

     Computed dipole along edir(3) : 
        Dipole                0.0041 Ry au,          0.0104 Debye
        Dipole field          0.0000 Ry au
 
        Potential amp.       -0.0019 Ry
        Total length         35.2972 bohr
 

     total cpu time spent up to now is       82.2 secs

     total energy              =   -1205.82555726 Ry
     Harris-Foulkes estimate   =   -1205.82555917 Ry
     estimated scf accuracy    <       0.00016282 Ry

     iteration #  9     ecut=    29.40 Ry     beta=0.10
     Davidson diagonalization with overlap
     ethr =  1.38E-07,  avg # of iterations =  1.0

     negative rho (up, down):  2.574E-03 0.000E+00
 
     Adding external electric field

     Computed dipole along edir(3) : 
        Dipole                0.0060 Ry au,          0.0153 Debye
        Dipole field          0.0000 Ry au
 
        Potential amp.       -0.0029 Ry
        Total length         35.2972 bohr
 

     total cpu time spent up to now is       83.6 secs

     total energy              =   -1205.82555673 Ry
     Harris-Foulkes estimate   =   -1205.82555996 Ry
     estimated scf accuracy    <       0.00004838 Ry

     iteration # 10     ecut=    29.40 Ry     beta=0.10
     Davidson diagonalization with overlap
     ethr =  5.76E-08,  avg # of iterations =  1.0

     negative rho (up, down):  2.544E-03 0.000E+00
 
     Adding external electric field

     Computed dipole along edir(3) : 
        Dipole                0.0055 Ry au,          0.0141 Debye
        Dipole field          0.0000 Ry au
 
        Potential amp.       -0.0026 Ry
        Total length         35.2972 bohr
 

     total cpu time spent up to now is       84.9 secs

     total energy              =   -1205.82556388 Ry
     Harris-Foulkes estimate   =   -1205.82556187 Ry
     estimated scf accuracy    <       0.00000979 Ry

     iteration # 11     ecut=    29.40 Ry     beta=0.10
     Davidson diagonalization with overlap
     ethr =  1.17E-08,  avg # of iterations =  1.0

     negative rho (up, down):  2.519E-03 0.000E+00
 
     Adding external electric field

     Computed dipole along edir(3) : 
        Dipole                0.0048 Ry au,          0.0123 Debye
        Dipole field          0.0000 Ry au
 
        Potential amp.       -0.0023 Ry
        Total length         35.2972 bohr
 

     total cpu time spent up to now is       86.2 secs

     total energy              =   -1205.82556586 Ry
     Harris-Foulkes estimate   =   -1205.82556416 Ry
     estimated scf accuracy    <       0.00000183 Ry

     iteration # 12     ecut=    29.40 Ry     beta=0.10
     Davidson diagonalization with overlap
     ethr =  2.18E-09,  avg # of iterations =  2.0

     negative rho (up, down):  2.412E-03 0.000E+00
 
     Adding external electric field

     Computed dipole along edir(3) : 
        Dipole                0.0085 Ry au,          0.0216 Debye
        Dipole field          0.0001 Ry au
 
        Potential amp.       -0.0040 Ry
        Total length         35.2972 bohr
 

     total cpu time spent up to now is       87.7 secs

     End of self-consistent calculation

          k = 0.0000 0.0000 0.0000 (  5071 PWs)   bands (ev):

   -90.9889 -90.5737 -90.5487 -90.3679 -54.5684 -54.4125 -54.3277 -54.1097
   -54.0186 -54.0007 -53.9858 -53.9833 -53.9531 -53.8450 -53.8057 -53.7795
   -14.1184  -6.0412  -5.3766  -4.8928  -4.8025  -4.5225  -4.3722  -3.6951
    -3.5191  -3.3532  -3.2896  -3.2319  -3.2203  -3.0376  -2.8687  -2.4475
    -2.3570  -2.1912  -2.0423  -1.8650  -1.7838  -1.7613  -1.5342  -1.4568
     0.0968   0.5097   1.1674   2.4039   3.2483   5.0713   5.2509   5.8056
     6.3637   6.8377   7.1666   8.0790   8.7673   9.2165   9.5645   9.8593
    10.6300  11.0291  11.2845  11.7230  11.7707  12.2738  12.5363  12.8522
    13.0678  13.4891  14.1117  14.4277  14.7443  15.3482  15.8094  16.2996

          k = 0.0000 0.0998 0.0000 (  5031 PWs)   bands (ev):

   -90.9860 -90.5698 -90.5468 -90.3652 -54.5634 -54.4067 -54.3683 -54.0916
   -54.0499 -54.0328 -54.0099 -53.9796 -53.9544 -53.8463 -53.8185 -53.8027
   -13.6398  -5.6859  -5.1975  -4.3919  -4.3081  -4.1046  -4.0068  -3.7545
    -3.6145  -3.4666  -3.3294  -3.1410  -3.0550  -2.8638  -2.8196  -2.7024
    -2.6004  -2.4868  -2.3461  -2.2245  -2.0830  -1.8884  -1.7236  -0.9950
    -0.4917   1.0955   1.8796   3.1575   4.7584   6.2670   6.5051   7.0506
     7.6859   7.9919   8.1401   8.6369   8.9787   9.5125   9.7561  10.2072
    10.5660  10.8125  11.0215  11.2711  11.7607  12.2372  12.4332  13.1358
    13.4215  13.6929  13.9963  14.2568  14.7520  15.1309  15.5428  15.5888

          k = 0.0000-0.1996 0.0000 (  5048 PWs)   bands (ev):

   -90.9832 -90.5666 -90.5443 -90.3623 -54.5603 -54.4103 -54.4028 -54.1088
   -54.1039 -54.0314 -54.0136 -53.9754 -53.9521 -53.8559 -53.8423 -53.8015
   -13.0415  -6.4620  -5.3859  -4.7919  -4.6818  -4.6044  -4.4189  -4.2438
    -3.9214  -3.6070  -3.1531  -2.9122  -2.8457  -2.4767  -2.2574  -2.0165
    -1.9507  -1.9050  -1.6736  -1.5073  -1.4834  -1.3823  -0.9305  -0.1673
     1.4588   2.1309   2.6038   3.0181   4.6278   5.8032   5.9593   6.3073
     7.6177   8.2695   8.5789  10.0308  10.3365  10.5035  10.5274  10.7874
    11.1568  11.2039  11.3778  11.5185  11.7272  11.9685  12.2817  12.3958
    12.5825  12.7399  13.1455  13.1558  13.4270  13.6187  14.2010  14.3369

          k =-0.0864 0.0499 0.0000 (  5024 PWs)   bands (ev):

   -90.9888 -90.5723 -90.5501 -90.3680 -54.5661 -54.4092 -54.3266 -54.0655
   -54.0385 -54.0074 -53.9948 -53.9829 -53.9624 -53.8506 -53.8049 -53.7793
   -14.1029  -5.7877  -4.8523  -4.5129  -4.3710  -4.1843  -4.0866  -3.7821
    -3.6537  -3.5060  -3.2670  -3.0745  -2.8901  -2.8480  -2.8128  -2.7131
    -2.6077  -2.5101  -2.4262  -2.3353  -2.2810  -2.1132  -1.9193  -1.7194
    -1.1253  -0.0977   1.3456   2.0357   3.7098   5.0612   5.9965   6.6065
     6.7258   6.8740   7.4405   7.9527   8.2719   8.6038   9.4777  10.0017
    10.4566  10.8620  11.2723  11.6456  12.0396  12.7019  13.5633  13.9710
    14.2117  14.3340  15.3217  15.4653  15.6308  15.9151  16.2256  16.8664

          k =-0.0864 0.1497 0.0000 (  5031 PWs)   bands (ev):

   -90.9860 -90.5698 -90.5468 -90.3652 -54.5635 -54.4066 -54.3683 -54.0874
   -54.0542 -54.0381 -54.0047 -53.9793 -53.9545 -53.8459 -53.8188 -53.8028
   -13.6401  -5.6822  -5.2487  -4.3938  -4.1799  -4.0675  -3.9907  -3.8746
    -3.5894  -3.4105  -3.3201  -3.2073  -3.0545  -2.8804  -2.7978  -2.6903
    -2.6374  -2.4858  -2.3704  -2.2421  -2.1399  -1.8854  -1.7385  -0.8920
    -0.5419   1.2336   1.8509   3.1912   4.6254   6.2741   6.4962   6.9355
     7.7327   7.9658   8.0937   8.6172   8.9631   9.4332   9.8303  10.3556
    10.6446  10.7784  11.0714  11.4559  11.7193  12.0428  12.6298  13.1947
    13.5694  13.7250  14.1214  14.3948  14.6104  14.8646  15.5279  15.5808

          k =-0.0864-0.1497 0.0000 (  5038 PWs)   bands (ev):

   -90.9832 -90.5667 -90.5443 -90.3624 -54.5589 -54.4091 -54.4008 -54.0898
   -54.0793 -54.0578 -54.0303 -53.9765 -53.9530 -53.8593 -53.8440 -53.8011
   -13.0502  -6.4465  -4.9454  -4.3352  -4.1676  -4.0447  -3.9430  -3.8399
    -3.8181  -3.4463  -3.2929  -3.2676  -3.0667  -3.0137  -2.8861  -2.8177
    -2.5554  -2.4394  -2.1939  -2.0229  -1.8248  -1.5751  -0.7655  -0.0612
     1.4035   1.6988   2.9469   4.0734   5.4052   7.2138   7.6869   7.8913
     7.9753   8.4652   8.7595   9.1989   9.4749   9.6392   9.6855  10.1986
    10.4679  10.7138  10.8288  11.1744  11.4081  11.7938  12.0490  12.5319
    12.9377  13.2500  13.6293  13.8969  14.2007  14.4989  14.7032  14.9393

     the Fermi energy is     1.5900 ev

!    total energy              =   -1205.82557430 Ry
     Harris-Foulkes estimate   =   -1205.82556575 Ry
     estimated scf accuracy    <       0.00000043 Ry

     The total energy is the sum of the following terms:

     one-electron contribution =   -6023.80247767 Ry
     hartree contribution      =    3009.27034065 Ry
     xc contribution           =    -123.13315098 Ry
     ewald contribution        =    1931.84553922 Ry
     electric field correction =       0.00000048 Ry
     smearing contrib. (-TS)   =      -0.00582602 Ry

     convergence has been achieved in  12 iterations

     Forces acting on atoms (Ry/au):


     negative rho (up, down):  2.412E-03 0.000E+00
     atom    1 type  1   force =    -0.00241322    0.00252277   -0.00384402
     atom    2 type  1   force =     0.00233341   -0.00208451   -0.00993064
     atom    3 type  1   force =     0.00421989   -0.01091173    0.02356148
     atom    4 type  1   force =     0.01521018   -0.00230920   -0.01768658
     atom    5 type  2   force =    -0.00178843    0.05254589    0.04990332
     atom    6 type  3   force =     0.02768615   -0.09960575   -0.08613997
     atom    7 type  3   force =    -0.00475789    0.03649162    0.03884357
     atom    8 type  3   force =    -0.04049009    0.02335092    0.00529284

     Total force =     0.172671     Total SCF correction =     0.005316
 !ASE
     Check: negative starting charge=   -0.002411
     NEW-OLD atomic charge density approx. for the potential
     Check: negative starting charge=   -0.002432

     negative rho (up, down):  2.523E-03 0.000E+00
 
     Adding external electric field

     Computed dipole along edir(3) : 
        Dipole                0.0085 Ry au,          0.0216 Debye
        Dipole field          0.0001 Ry au
 
        Potential amp.       -0.0040 Ry
        Total length         35.2972 bohr
 

     total cpu time spent up to now is       88.8 secs

     per-process dynamical memory:    31.3 Mb

     Self-consistent Calculation

     iteration #  1     ecut=    29.40 Ry     beta=0.10
     Davidson diagonalization with overlap
     ethr =  2.18E-09,  avg # of iterations =  7.8

     negative rho (up, down):  2.509E-03 0.000E+00
 
     Adding external electric field

     Computed dipole along edir(3) : 
        Dipole               -0.0527 Ry au,         -0.1340 Debye
        Dipole field         -0.0004 Ry au
 
        Potential amp.        0.0250 Ry
        Total length         35.2972 bohr
 

     total cpu time spent up to now is       92.5 secs

     total energy              =   -1205.84249197 Ry
     Harris-Foulkes estimate   =   -1205.84697576 Ry
     estimated scf accuracy    <       0.02839304 Ry

     iteration #  2     ecut=    29.40 Ry     beta=0.10
     Davidson diagonalization with overlap
     ethr =  3.38E-05,  avg # of iterations =  3.2

     negative rho (up, down):  2.498E-03 0.000E+00
 
     Adding external electric field

     Computed dipole along edir(3) : 
        Dipole                0.0002 Ry au,          0.0004 Debye
        Dipole field          0.0000 Ry au
 
        Potential amp.       -0.0001 Ry
        Total length         35.2972 bohr
 

     total cpu time spent up to now is       94.2 secs

     total energy              =   -1205.84346426 Ry
     Harris-Foulkes estimate   =   -1205.84589723 Ry
     estimated scf accuracy    <       0.02795238 Ry

     iteration #  3     ecut=    29.40 Ry     beta=0.10
     Davidson diagonalization with overlap
     ethr =  3.33E-05,  avg # of iterations =  3.2

     negative rho (up, down):  2.491E-03 0.000E+00
 
     Adding external electric field

     Computed dipole along edir(3) : 
        Dipole                0.0201 Ry au,          0.0510 Debye
        Dipole field          0.0001 Ry au
 
        Potential amp.       -0.0095 Ry
        Total length         35.2972 bohr
 

     total cpu time spent up to now is       95.9 secs

     total energy              =   -1205.84349932 Ry
     Harris-Foulkes estimate   =   -1205.84466158 Ry
     estimated scf accuracy    <       0.00516748 Ry

     iteration #  4     ecut=    29.40 Ry     beta=0.10
     Davidson diagonalization with overlap
     ethr =  6.15E-06,  avg # of iterations =  4.2

     negative rho (up, down):  2.512E-03 0.000E+00
 
     Adding external electric field

     Computed dipole along edir(3) : 
        Dipole                0.0363 Ry au,          0.0922 Debye
        Dipole field          0.0002 Ry au
 
        Potential amp.       -0.0172 Ry
        Total length         35.2972 bohr
 

     total cpu time spent up to now is       97.7 secs

     total energy              =   -1205.84371823 Ry
     Harris-Foulkes estimate   =   -1205.84391412 Ry
     estimated scf accuracy    <       0.00152506 Ry

     iteration #  5     ecut=    29.40 Ry     beta=0.10
     Davidson diagonalization with overlap
     ethr =  1.82E-06,  avg # of iterations =  4.8

     negative rho (up, down):  2.519E-03 0.000E+00
 
     Adding external electric field

     Computed dipole along edir(3) : 
        Dipole                0.0260 Ry au,          0.0661 Debye
        Dipole field          0.0002 Ry au
 
        Potential amp.       -0.0123 Ry
        Total length         35.2972 bohr
 

     total cpu time spent up to now is       99.7 secs

     total energy              =   -1205.84377417 Ry
     Harris-Foulkes estimate   =   -1205.84386442 Ry
     estimated scf accuracy    <       0.00080527 Ry

     iteration #  6     ecut=    29.40 Ry     beta=0.10
     Davidson diagonalization with overlap
     ethr =  9.59E-07,  avg # of iterations =  2.8

     negative rho (up, down):  2.544E-03 0.000E+00
 
     Adding external electric field

     Computed dipole along edir(3) : 
        Dipole                0.0309 Ry au,          0.0786 Debye
        Dipole field          0.0002 Ry au
 
        Potential amp.       -0.0146 Ry
        Total length         35.2972 bohr
 

     total cpu time spent up to now is      101.3 secs

     total energy              =   -1205.84381405 Ry
     Harris-Foulkes estimate   =   -1205.84388348 Ry
     estimated scf accuracy    <       0.00082930 Ry

     iteration #  7     ecut=    29.40 Ry     beta=0.10
     Davidson diagonalization with overlap
     ethr =  9.59E-07,  avg # of iterations =  1.0

     negative rho (up, down):  2.540E-03 0.000E+00
 
     Adding external electric field

     Computed dipole along edir(3) : 
        Dipole                0.0276 Ry au,          0.0701 Debye
        Dipole field          0.0002 Ry au
 
        Potential amp.       -0.0131 Ry
        Total length         35.2972 bohr
 

     total cpu time spent up to now is      102.6 secs

     total energy              =   -1205.84387833 Ry
     Harris-Foulkes estimate   =   -1205.84388099 Ry
     estimated scf accuracy    <       0.00007816 Ry

     iteration #  8     ecut=    29.40 Ry     beta=0.10
     Davidson diagonalization with overlap
     ethr =  9.30E-08,  avg # of iterations =  1.2

     negative rho (up, down):  2.521E-03 0.000E+00
 
     Adding external electric field

     Computed dipole along edir(3) : 
        Dipole                0.0266 Ry au,          0.0675 Debye
        Dipole field          0.0002 Ry au
 
        Potential amp.       -0.0126 Ry
        Total length         35.2972 bohr
 

     total cpu time spent up to now is      103.9 secs

     total energy              =   -1205.84388118 Ry
     Harris-Foulkes estimate   =   -1205.84388161 Ry
     estimated scf accuracy    <       0.00002915 Ry

     iteration #  9     ecut=    29.40 Ry     beta=0.10
     Davidson diagonalization with overlap
     ethr =  3.47E-08,  avg # of iterations =  1.0

     negative rho (up, down):  2.508E-03 0.000E+00
 
     Adding external electric field

     Computed dipole along edir(3) : 
        Dipole                0.0259 Ry au,          0.0658 Debye
        Dipole field          0.0002 Ry au
 
        Potential amp.       -0.0123 Ry
        Total length         35.2972 bohr
 

     total cpu time spent up to now is      105.2 secs

     total energy              =   -1205.84388243 Ry
     Harris-Foulkes estimate   =   -1205.84388202 Ry
     estimated scf accuracy    <       0.00000504 Ry

     iteration # 10     ecut=    29.40 Ry     beta=0.10
     Davidson diagonalization with overlap
     ethr =  5.99E-09,  avg # of iterations =  2.0

     negative rho (up, down):  2.495E-03 0.000E+00
 
     Adding external electric field

     Computed dipole along edir(3) : 
        Dipole                0.0261 Ry au,          0.0663 Debye
        Dipole field          0.0002 Ry au
 
        Potential amp.       -0.0124 Ry
        Total length         35.2972 bohr
 

     total cpu time spent up to now is      106.7 secs

     total energy              =   -1205.84388419 Ry
     Harris-Foulkes estimate   =   -1205.84388324 Ry
     estimated scf accuracy    <       0.00000335 Ry

     iteration # 11     ecut=    29.40 Ry     beta=0.10
     Davidson diagonalization with overlap
     ethr =  3.98E-09,  avg # of iterations =  1.0

     negative rho (up, down):  2.434E-03 0.000E+00
 
     Adding external electric field

     Computed dipole along edir(3) : 
        Dipole                0.0298 Ry au,          0.0757 Debye
        Dipole field          0.0002 Ry au
 
        Potential amp.       -0.0141 Ry
        Total length         35.2972 bohr
 

     total cpu time spent up to now is      108.0 secs

     End of self-consistent calculation

          k = 0.0000 0.0000 0.0000 (  5071 PWs)   bands (ev):

   -90.8425 -90.5452 -90.5123 -90.3321 -54.3759 -54.2951 -54.2031 -54.0788
   -53.9877 -53.9676 -53.9528 -53.9495 -53.9182 -53.8066 -53.7703 -53.7433
   -14.4928  -5.8410  -5.4834  -4.8473  -4.7212  -4.4697  -4.3979  -3.6305
    -3.3916  -3.2668  -3.2234  -3.1890  -3.1677  -3.0028  -2.8220  -2.3905
    -2.2838  -2.1534  -2.0119  -1.8123  -1.7419  -1.7141  -1.4848  -1.4052
     0.0186   0.5474   1.1389   2.4419   3.3997   5.0146   5.2753   5.8398
     6.3418   6.8687   7.3750   8.1880   8.8864   9.2282   9.5291  10.0308
    10.6809  10.9581  11.2850  11.6889  11.7424  12.2239  12.5563  12.8786
    13.1329  13.5936  14.1164  14.4612  14.8321  15.2833  15.8363  16.4217

          k = 0.0000 0.0998 0.0000 (  5031 PWs)   bands (ev):

   -90.8397 -90.5416 -90.5102 -90.3293 -54.3705 -54.2890 -54.2435 -54.0600
   -54.0218 -53.9970 -53.9757 -53.9495 -53.9177 -53.8088 -53.7821 -53.7674
   -14.0322  -5.7414  -5.0094  -4.3325  -4.2865  -4.0449  -3.9564  -3.7030
    -3.5780  -3.4362  -3.2802  -3.0986  -2.9975  -2.8240  -2.7657  -2.6564
    -2.5389  -2.4403  -2.3026  -2.1837  -2.0224  -1.8358  -1.6755  -0.9941
    -0.5165   1.1737   1.9446   3.0939   4.8820   6.3663   6.4789   7.1039
     7.8087   8.0490   8.2512   8.7297   9.0796   9.5039   9.7916  10.4505
    10.5907  10.8235  11.0660  11.3164  11.8627  12.3355  12.4404  13.2738
    13.4597  13.6510  14.0403  14.2937  14.8049  15.1338  15.5429  15.5835

          k = 0.0000-0.1996 0.0000 (  5048 PWs)   bands (ev):

   -90.8368 -90.5385 -90.5076 -90.3265 -54.3673 -54.2907 -54.2807 -54.0763
   -54.0727 -53.9998 -53.9787 -53.9462 -53.9149 -53.8194 -53.8046 -53.7662
   -13.4631  -6.5719  -5.0979  -4.7313  -4.6577  -4.6297  -4.3871  -4.1744
    -3.8260  -3.5998  -3.0789  -2.9017  -2.7988  -2.4573  -2.1933  -1.9830
    -1.9028  -1.8643  -1.5754  -1.4741  -1.4462  -1.3294  -0.9888  -0.1985
     1.5427   2.2172   2.6462   3.1098   4.6985   5.9655   6.0323   6.3516
     8.0829   8.1902   8.9305  10.1451  10.3082  10.5511  10.5936  10.7536
    11.1162  11.1748  11.3643  11.4900  11.6978  12.0535  12.2956  12.4078
    12.6005  12.7200  13.1479  13.2237  13.5116  13.6330  14.2841  14.3954

          k =-0.0864 0.0499 0.0000 (  5024 PWs)   bands (ev):

   -90.8424 -90.5442 -90.5133 -90.3322 -54.3734 -54.2905 -54.2019 -54.0375
   -54.0021 -53.9787 -53.9582 -53.9534 -53.9251 -53.8134 -53.7696 -53.7432
   -14.4791  -5.6202  -5.0024  -4.4354  -4.2691  -4.1538  -4.0391  -3.7001
    -3.5859  -3.4517  -3.2426  -3.0331  -2.8536  -2.7754  -2.7092  -2.6565
    -2.5484  -2.4613  -2.3933  -2.2914  -2.2383  -2.0228  -1.8405  -1.6828
    -1.1236  -0.1646   1.3894   2.1614   3.5842   5.2799   6.1563   6.5481
     6.6792   6.8799   7.4458   7.9185   8.2702   8.6278   9.5040   9.9369
    10.4739  10.8866  11.3119  11.7191  12.0635  12.7955  13.7150  13.9326
    14.3140  14.4965  15.3536  15.6391  15.7549  16.0382  16.3131  16.9887

          k =-0.0864 0.1497 0.0000 (  5031 PWs)   bands (ev):

   -90.8397 -90.5416 -90.5102 -90.3293 -54.3706 -54.2884 -54.2441 -54.0575
   -54.0241 -54.0011 -53.9717 -53.9492 -53.9180 -53.8082 -53.7825 -53.7675
   -14.0322  -5.7306  -5.0527  -4.3365  -4.1574  -4.0074  -3.9352  -3.8423
    -3.5480  -3.4299  -3.2802  -3.1509  -2.9912  -2.8421  -2.7406  -2.6429
    -2.5789  -2.4373  -2.3318  -2.1955  -2.0871  -1.8243  -1.7047  -0.8686
    -0.5416   1.3406   1.9045   3.1633   4.7349   6.3497   6.4728   7.0223
     7.7846   8.0599   8.1472   8.7191   9.0163   9.4243   9.8095  10.4794
    10.6790  10.8240  11.1256  11.5179  11.8553  12.1648  12.6318  13.3746
    13.6029  13.7223  14.1495  14.4821  14.7393  14.9524  15.5304  15.5921

          k =-0.0864-0.1497 0.0000 (  5038 PWs)   bands (ev):

   -90.8368 -90.5386 -90.5076 -90.3265 -54.3659 -54.2886 -54.2783 -54.0604
   -54.0425 -54.0302 -53.9941 -53.9473 -53.9157 -53.8233 -53.8067 -53.7658
   -13.4709  -6.5647  -4.5605  -4.4240  -4.0829  -3.9871  -3.8728  -3.8030
    -3.7603  -3.4461  -3.2632  -3.2031  -3.0388  -2.9904  -2.8512  -2.7908
    -2.4882  -2.3909  -2.1260  -1.9806  -1.7692  -1.5406  -0.8154  -0.0218
     1.4104   1.7773   2.9214   4.1686   5.4419   7.6389   7.7761   7.9627
     8.1943   8.5917   8.8270   9.2155   9.4566   9.6536   9.8126  10.1841
    10.4736  10.7095  10.8889  11.2043  11.6259  11.8503  12.1613  12.4905
    12.9435  13.4387  13.6492  13.9448  14.2365  14.5781  14.7761  14.9705

     the Fermi energy is     1.6551 ev

!    total energy              =   -1205.84388861 Ry
     Harris-Foulkes estimate   =   -1205.84388291 Ry
     estimated scf accuracy    <       0.00000046 Ry

     The total energy is the sum of the following terms:

     one-electron contribution =   -6040.63256607 Ry
     hartree contribution      =    3017.83053082 Ry
     xc contribution           =    -123.20751925 Ry
     ewald contribution        =    1940.17136127 Ry
     electric field correction =       0.00000595 Ry
     smearing contrib. (-TS)   =      -0.00570133 Ry

     convergence has been achieved in  11 iterations

     Forces acting on atoms (Ry/au):


     negative rho (up, down):  2.434E-03 0.000E+00
     atom    1 type  1   force =    -0.00246289    0.00248284   -0.00390332
     atom    2 type  1   force =     0.00238439   -0.00216850   -0.00968068
     atom    3 type  1   force =     0.00514317   -0.01103108    0.02761120
     atom    4 type  1   force =    -0.00986122    0.01291033   -0.01408401
     atom    5 type  2   force =     0.02201200   -0.02127312    0.02435024
     atom    6 type  3   force =    -0.00675066   -0.02120557   -0.03181200
     atom    7 type  3   force =     0.01189277    0.02900525    0.02990111
     atom    8 type  3   force =    -0.02235757    0.01127985   -0.02238254

     Total force =     0.086871     Total SCF correction =     0.005938
 !ASE
     Check: negative starting charge=   -0.002432
     NEW-OLD atomic charge density approx. for the potential
     Check: negative starting charge=   -0.002427

     negative rho (up, down):  2.496E-03 0.000E+00
 
     Adding external electric field

     Computed dipole along edir(3) : 
        Dipole                0.0298 Ry au,          0.0757 Debye
        Dipole field          0.0002 Ry au
 
        Potential amp.       -0.0141 Ry
        Total length         35.2972 bohr
 

     total cpu time spent up to now is      109.2 secs

     per-process dynamical memory:    31.3 Mb

     Self-consistent Calculation

     iteration #  1     ecut=    29.40 Ry     beta=0.10
     Davidson diagonalization with overlap
     ethr =  3.98E-09,  avg # of iterations =  6.7

     negative rho (up, down):  2.483E-03 0.000E+00
 
     Adding external electric field

[...]

     Computed dipole along edir(3) : 
        Dipole               -0.0572 Ry au,         -0.1454 Debye
        Dipole field         -0.0004 Ry au
 
        Potential amp.        0.0271 Ry
        Total length         35.2972 bohr
 

     total cpu time spent up to now is      616.4 secs

     total energy              =   -1205.87184356 Ry
     Harris-Foulkes estimate   =   -1205.87184328 Ry
     estimated scf accuracy    <       0.00000301 Ry

     iteration #  5     ecut=    29.40 Ry     beta=0.10
     Davidson diagonalization with overlap
     ethr =  3.58E-09,  avg # of iterations =  1.0

     negative rho (up, down):  2.449E-03 0.000E+00
 
     Adding external electric field

     Computed dipole along edir(3) : 
        Dipole               -0.0580 Ry au,         -0.1475 Debye
        Dipole field         -0.0004 Ry au
 
        Potential amp.        0.0275 Ry
        Total length         35.2972 bohr
 

     total cpu time spent up to now is      617.7 secs

     total energy              =   -1205.87184362 Ry
     Harris-Foulkes estimate   =   -1205.87184303 Ry
     estimated scf accuracy    <       0.00000117 Ry

     iteration #  6     ecut=    29.40 Ry     beta=0.10
     Davidson diagonalization with overlap
     ethr =  1.40E-09,  avg # of iterations =  2.0

     negative rho (up, down):  2.448E-03 0.000E+00
 
     Adding external electric field

     Computed dipole along edir(3) : 
        Dipole               -0.0584 Ry au,         -0.1483 Debye
        Dipole field         -0.0004 Ry au
 
        Potential amp.        0.0276 Ry
        Total length         35.2972 bohr
 

     total cpu time spent up to now is      619.1 secs

     End of self-consistent calculation

          k = 0.0000 0.0000 0.0000 (  5071 PWs)   bands (ev):

   -90.7481 -90.7417 -90.7168 -90.7142 -54.2911 -54.2705 -54.2148 -54.1982
   -54.1907 -54.1650 -54.1589 -54.1506 -54.1384 -54.1218 -54.1079 -54.1061
   -14.5136  -6.5866  -5.3143  -4.9395  -4.8059  -4.6353  -4.4439  -3.7469
    -3.5572  -3.4301  -3.4179  -3.3649  -3.3599  -3.1573  -2.9649  -2.5177
    -2.4786  -2.3462  -2.1978  -2.0782  -2.0148  -1.9458  -1.6861  -1.6003
    -0.1201   0.5174   1.5224   2.0389   2.7332   5.0992   5.2717   5.6344
     6.2475   6.8433   7.2605   8.4564   8.9852   9.5106  10.1767  10.4206
    10.8828  11.0435  11.2842  11.6843  12.2567  12.4331  12.5187  12.9033
    13.1152  13.5514  13.9131  14.5912  15.0497  15.2920  15.4391  16.2457

          k = 0.0000 0.0998 0.0000 (  5031 PWs)   bands (ev):

   -90.7438 -90.7384 -90.7155 -90.7119 -54.2686 -54.2508 -54.2291 -54.2178
   -54.2012 -54.1947 -54.1861 -54.1736 -54.1588 -54.1341 -54.1298 -54.1042
   -14.1291  -5.9322  -5.0080  -4.4856  -4.2898  -4.1863  -4.1280  -3.9153
    -3.7214  -3.6793  -3.4436  -3.2376  -3.2073  -3.0005  -2.9458  -2.8530
    -2.7180  -2.6485  -2.4896  -2.4145  -2.2701  -2.0273  -1.8638  -0.9627
    -0.6262   0.9767   1.6832   3.0679   4.7570   6.4916   6.6384   7.0703
     7.7305   7.9186   8.0680   8.7644   9.1938   9.6512   9.8774  10.2416
    10.5113  10.9212  11.1055  11.2966  11.7909  12.2107  12.5086  13.2284
    13.4367  13.8040  14.0900  14.3088  14.8630  15.1614  15.6210  15.7416

          k = 0.0000-0.1996 0.0000 (  5048 PWs)   bands (ev):

   -90.7403 -90.7352 -90.7133 -90.7093 -54.2840 -54.2830 -54.2610 -54.2402
   -54.2086 -54.1989 -54.1921 -54.1820 -54.1481 -54.1434 -54.1383 -54.1045
   -13.6796  -6.0326  -5.6668  -4.8236  -4.8044  -4.6321  -4.5627  -4.3787
    -3.8489  -3.7069  -3.1282  -3.1172  -2.8692  -2.7539  -2.3798  -2.2214
    -2.1109  -2.0999  -1.6902  -1.6798  -1.6096  -1.5972  -1.2338  -0.3161
     0.9401   2.0886   2.4271   2.9587   5.0532   5.5277   5.8323   6.5181
     8.0640   8.7116   9.2601   9.9951  10.2180  10.2553  10.4388  10.8011
    11.1872  11.2920  11.3840  11.6115  11.8500  12.0370  12.2905  12.3605
    12.4741  12.8269  13.0332  13.1736  13.2751  13.6835  14.0447  14.4905

          k =-0.0864 0.0499 0.0000 (  5024 PWs)   bands (ev):

   -90.7463 -90.7412 -90.7186 -90.7146 -54.2480 -54.2369 -54.2267 -54.2008
   -54.1921 -54.1792 -54.1678 -54.1661 -54.1470 -54.1296 -54.1122 -54.1056
   -14.5010  -6.1992  -4.8335  -4.5553  -4.3850  -4.2980  -4.1658  -3.8992
    -3.7009  -3.5911  -3.4368  -3.1021  -3.0539  -2.9626  -2.9213  -2.8329
    -2.7051  -2.6713  -2.6253  -2.4827  -2.3785  -2.3038  -2.0267  -2.0043
    -1.2094  -0.4460   1.0993   2.0726   3.3727   5.5050   6.2816   6.6006
     6.8550   6.9480   7.6097   8.1991   8.3309   8.7883   9.7763  10.3278
    10.6252  10.8847  11.5110  11.5725  11.9186  12.6270  13.5072  13.9880
    14.3282  14.4531  14.8112  15.4530  15.5860  16.1013  16.7325  17.0300

          k =-0.0864 0.1497 0.0000 (  5031 PWs)   bands (ev):

   -90.7438 -90.7384 -90.7155 -90.7119 -54.2692 -54.2507 -54.2279 -54.2158
   -54.2021 -54.1942 -54.1882 -54.1743 -54.1601 -54.1332 -54.1289 -54.1042
   -14.1295  -5.9361  -4.9538  -4.4792  -4.2726  -4.2142  -4.1012  -3.9660
    -3.7842  -3.5555  -3.4578  -3.3453  -3.1400  -3.0245  -2.9508  -2.8727
    -2.7110  -2.6365  -2.5192  -2.4051  -2.2952  -2.0150  -1.8997  -0.9645
    -0.5889   1.0271   1.6904   3.1395   4.6596   6.4512   6.5976   7.0371
     7.7740   7.9037   8.0807   8.6784   9.2136   9.5016   9.8776  10.4787
    10.5826  10.9092  11.0725  11.4592  11.8088  12.2389  12.5678  13.5188
    13.5952  13.8525  14.0830  14.2939  14.6104  15.0106  15.6233  15.7187

          k =-0.0864-0.1497 0.0000 (  5038 PWs)   bands (ev):

   -90.7404 -90.7352 -90.7133 -90.7092 -54.2655 -54.2555 -54.2394 -54.2357
   -54.2197 -54.2132 -54.2015 -54.1929 -54.1713 -54.1526 -54.1343 -54.1038
   -13.6864  -5.8605  -5.3875  -4.3707  -4.2341  -4.1244  -4.0550  -4.0013
    -3.8207  -3.5546  -3.3800  -3.3043  -3.2865  -3.1961  -3.0260  -2.9846
    -2.6541  -2.5007  -2.3627  -2.1975  -1.9313  -1.8045  -1.0796  -0.1868
     1.1402   1.5562   2.9868   3.8960   6.0062   7.1924   7.6766   7.8198
     8.1538   8.5502   8.9943   9.0323   9.4157   9.6138   9.9391  10.2320
    10.5030  10.6855  10.8026  11.1500  11.5159  11.5944  11.9545  12.7091
    12.9379  13.0352  13.4299  13.7864  14.3117  14.5128  14.5832  14.9724

     the Fermi energy is     1.4716 ev

!    total energy              =   -1205.87184394 Ry
     Harris-Foulkes estimate   =   -1205.87184344 Ry
     estimated scf accuracy    <       0.00000017 Ry

     The total energy is the sum of the following terms:

     one-electron contribution =   -6023.96690464 Ry
     hartree contribution      =    3009.12844768 Ry
     xc contribution           =    -123.25512458 Ry
     ewald contribution        =    1932.22754188 Ry
     electric field correction =       0.00002285 Ry
     smearing contrib. (-TS)   =      -0.00582713 Ry

     convergence has been achieved in   6 iterations

     Forces acting on atoms (Ry/au):


     negative rho (up, down):  2.448E-03 0.000E+00
     atom    1 type  1   force =    -0.00322352    0.00250223   -0.00159552
     atom    2 type  1   force =     0.00350809   -0.00275492   -0.01719315
     atom    3 type  1   force =    -0.01328657    0.00575172    0.01207502
     atom    4 type  1   force =     0.01283061   -0.00540496    0.00660950
     atom    5 type  2   force =     0.02240265   -0.00256691    0.01640884
     atom    6 type  3   force =     0.00031191   -0.00010939   -0.00007194
     atom    7 type  3   force =    -0.00034664   -0.00118204    0.00044557
     atom    8 type  3   force =    -0.02219653    0.00376427   -0.01667833

     Total force =     0.049922     Total SCF correction =     0.001359
 !ASE
     Check: negative starting charge=   -0.002458
     NEW-OLD atomic charge density approx. for the potential
     Check: negative starting charge=   -0.002458

     negative rho (up, down):  2.448E-03 0.000E+00
 
     Adding external electric field

     Computed dipole along edir(3) : 
        Dipole               -0.0584 Ry au,         -0.1483 Debye
        Dipole field         -0.0004 Ry au
 
        Potential amp.        0.0276 Ry
        Total length         35.2972 bohr
 

     total cpu time spent up to now is      620.3 secs

     per-process dynamical memory:    31.3 Mb

     Self-consistent Calculation

     iteration #  1     ecut=    29.40 Ry     beta=0.10
     Davidson diagonalization with overlap
     ethr =  1.40E-09,  avg # of iterations =  4.0

     negative rho (up, down):  2.448E-03 0.000E+00
 
     Adding external electric field

     Computed dipole along edir(3) : 
        Dipole               -0.0567 Ry au,         -0.1442 Debye
        Dipole field         -0.0004 Ry au
 
        Potential amp.        0.0269 Ry
        Total length         35.2972 bohr
 

     total cpu time spent up to now is      622.8 secs

     total energy              =   -1205.87184482 Ry
     Harris-Foulkes estimate   =   -1205.87184768 Ry
     estimated scf accuracy    <       0.00001052 Ry

     iteration #  2     ecut=    29.40 Ry     beta=0.10
     Davidson diagonalization with overlap
     ethr =  1.25E-08,  avg # of iterations =  1.0

     negative rho (up, down):  2.448E-03 0.000E+00
 
     Adding external electric field

     Computed dipole along edir(3) : 
        Dipole               -0.0579 Ry au,         -0.1472 Debye
        Dipole field         -0.0004 Ry au
 
        Potential amp.        0.0274 Ry
        Total length         35.2972 bohr
 

     total cpu time spent up to now is      624.1 secs

     total energy              =   -1205.87184508 Ry
     Harris-Foulkes estimate   =   -1205.87184588 Ry
     estimated scf accuracy    <       0.00002491 Ry

     iteration #  3     ecut=    29.40 Ry     beta=0.10
     Davidson diagonalization with overlap
     ethr =  1.25E-08,  avg # of iterations =  1.0

     negative rho (up, down):  2.448E-03 0.000E+00
 
     Adding external electric field

     Computed dipole along edir(3) : 
        Dipole               -0.0584 Ry au,         -0.1483 Debye
        Dipole field         -0.0004 Ry au
 
        Potential amp.        0.0276 Ry
        Total length         35.2972 bohr
 

     total cpu time spent up to now is      625.4 secs

     total energy              =   -1205.87184535 Ry
     Harris-Foulkes estimate   =   -1205.87184554 Ry
     estimated scf accuracy    <       0.00000194 Ry

     iteration #  4     ecut=    29.40 Ry     beta=0.10
     Davidson diagonalization with overlap
     ethr =  2.31E-09,  avg # of iterations =  2.0

     negative rho (up, down):  2.448E-03 0.000E+00
 
     Adding external electric field

     Computed dipole along edir(3) : 
        Dipole               -0.0577 Ry au,         -0.1466 Debye
        Dipole field         -0.0004 Ry au
 
        Potential amp.        0.0273 Ry
        Total length         35.2972 bohr
 

     total cpu time spent up to now is      626.9 secs

     End of self-consistent calculation

          k = 0.0000 0.0000 0.0000 (  5071 PWs)   bands (ev):

   -90.7487 -90.7410 -90.7194 -90.7148 -54.2919 -54.2710 -54.2157 -54.1991
   -54.1914 -54.1656 -54.1588 -54.1507 -54.1390 -54.1231 -54.1099 -54.1067
   -14.5129  -6.5856  -5.3147  -4.9390  -4.8068  -4.6352  -4.4444  -3.7468
    -3.5571  -3.4308  -3.4186  -3.3654  -3.3607  -3.1582  -2.9653  -2.5183
    -2.4794  -2.3463  -2.1986  -2.0780  -2.0156  -1.9469  -1.6868  -1.6010
    -0.1207   0.5161   1.5205   2.0392   2.7330   5.0993   5.2722   5.6341
     6.2480   6.8433   7.2604   8.4560   8.9854   9.5067  10.1723  10.4208
    10.8802  11.0442  11.2842  11.6851  12.2532  12.4330  12.5191  12.9036
    13.1149  13.5512  13.9130  14.5902  15.0497  15.2923  15.4374  16.2457

          k = 0.0000 0.0998 0.0000 (  5031 PWs)   bands (ev):

   -90.7444 -90.7375 -90.7180 -90.7126 -54.2693 -54.2513 -54.2298 -54.2181
   -54.2021 -54.1955 -54.1859 -54.1741 -54.1606 -54.1350 -54.1312 -54.1048
   -14.1279  -5.9303  -5.0081  -4.4860  -4.2905  -4.1871  -4.1284  -3.9156
    -3.7219  -3.6798  -3.4444  -3.2382  -3.2085  -3.0012  -2.9464  -2.8537
    -2.7184  -2.6493  -2.4900  -2.4151  -2.2706  -2.0279  -1.8644  -0.9642
    -0.6279   0.9760   1.6826   3.0674   4.7560   6.4909   6.6391   7.0695
     7.7302   7.9187   8.0684   8.7633   9.1942   9.6507   9.8784  10.2420
    10.5114  10.9207  11.1046  11.2958  11.7902  12.2099  12.5075  13.2277
    13.4365  13.8035  14.0891  14.3080  14.8620  15.1608  15.6210  15.7411

          k = 0.0000-0.1996 0.0000 (  5048 PWs)   bands (ev):

   -90.7409 -90.7342 -90.7159 -90.7101 -54.2846 -54.2837 -54.2611 -54.2406
   -54.2092 -54.2006 -54.1922 -54.1830 -54.1490 -54.1454 -54.1385 -54.1051
   -13.6778  -6.0312  -5.6679  -4.8246  -4.8049  -4.6334  -4.5632  -4.3794
    -3.8493  -3.7077  -3.1283  -3.1185  -2.8695  -2.7542  -2.3801  -2.2220
    -2.1119  -2.1001  -1.6907  -1.6807  -1.6110  -1.5973  -1.2359  -0.3171
     0.9403   2.0880   2.4265   2.9581   5.0515   5.5287   5.8314   6.5152
     8.0638   8.7103   9.2589   9.9948  10.2180  10.2546  10.4386  10.8008
    11.1871  11.2919  11.3851  11.6119  11.8502  12.0378  12.2907  12.3612
    12.4745  12.8272  13.0331  13.1730  13.2759  13.6833  14.0457  14.4904

          k =-0.0864 0.0499 0.0000 (  5024 PWs)   bands (ev):

   -90.7469 -90.7403 -90.7212 -90.7154 -54.2490 -54.2364 -54.2281 -54.2021
   -54.1928 -54.1799 -54.1683 -54.1666 -54.1462 -54.1308 -54.1147 -54.1061
   -14.5003  -6.1967  -4.8333  -4.5558  -4.3845  -4.2994  -4.1675  -3.8998
    -3.7024  -3.5913  -3.4376  -3.1028  -3.0544  -2.9622  -2.9223  -2.8339
    -2.7055  -2.6717  -2.6262  -2.4833  -2.3790  -2.3042  -2.0271  -2.0050
    -1.2094  -0.4454   1.0976   2.0710   3.3731   5.5032   6.2820   6.6002
     6.8545   6.9492   7.6104   8.1995   8.3310   8.7878   9.7757  10.3288
    10.6210  10.8837  11.5098  11.5699  11.9163  12.6281  13.5053  13.9874
    14.3269  14.4525  14.8120  15.4539  15.5839  16.1007  16.7314  17.0289

          k =-0.0864 0.1497 0.0000 (  5031 PWs)   bands (ev):

   -90.7444 -90.7375 -90.7180 -90.7126 -54.2699 -54.2513 -54.2287 -54.2161
   -54.2029 -54.1949 -54.1880 -54.1748 -54.1620 -54.1340 -54.1304 -54.1048
   -14.1283  -5.9347  -4.9543  -4.4796  -4.2731  -4.2146  -4.1016  -3.9665
    -3.7835  -3.5563  -3.4588  -3.3458  -3.1409  -3.0252  -2.9514  -2.8729
    -2.7117  -2.6372  -2.5198  -2.4059  -2.2955  -2.0157  -1.9003  -0.9655
    -0.5917   1.0266   1.6898   3.1388   4.6585   6.4512   6.5976   7.0368
     7.7738   7.9036   8.0807   8.6776   9.2135   9.5018   9.8774  10.4788
    10.5829  10.9093  11.0713  11.4582  11.8082  12.2389  12.5667  13.5182
    13.5942  13.8522  14.0829  14.2930  14.6102  15.0099  15.6227  15.7194

          k =-0.0864-0.1497 0.0000 (  5038 PWs)   bands (ev):

   -90.7410 -90.7342 -90.7159 -90.7101 -54.2664 -54.2558 -54.2383 -54.2365
   -54.2218 -54.2125 -54.2036 -54.1943 -54.1711 -54.1551 -54.1347 -54.1044
   -13.6846  -5.8593  -5.3877  -4.3720  -4.2344  -4.1251  -4.0556  -4.0026
    -3.8226  -3.5556  -3.3802  -3.3051  -3.2867  -3.1968  -3.0266  -2.9853
    -2.6541  -2.5018  -2.3631  -2.1982  -1.9319  -1.8044  -1.0823  -0.1875
     1.1402   1.5562   2.9864   3.8955   6.0034   7.1933   7.6750   7.8192
     8.1531   8.5500   8.9948   9.0323   9.4151   9.6137   9.9391  10.2317
    10.5037  10.6856  10.8018  11.1497  11.5154  11.5942  11.9535  12.7080
    12.9388  13.0350  13.4302  13.7863  14.3110  14.5123  14.5827  14.9721

     the Fermi energy is     1.4708 ev

!    total energy              =   -1205.87184554 Ry
     Harris-Foulkes estimate   =   -1205.87184608 Ry
     estimated scf accuracy    <       0.00000022 Ry

     The total energy is the sum of the following terms:

     one-electron contribution =   -6023.87403966 Ry
     hartree contribution      =    3009.08314696 Ry
     xc contribution           =    -123.25476213 Ry
     ewald contribution        =    1932.17961213 Ry
     electric field correction =       0.00002233 Ry
     smearing contrib. (-TS)   =      -0.00582516 Ry

     convergence has been achieved in   4 iterations

     Forces acting on atoms (Ry/au):


     negative rho (up, down):  2.448E-03 0.000E+00
     atom    1 type  1   force =    -0.00323295    0.00252291   -0.00155112
     atom    2 type  1   force =     0.00352800   -0.00276746   -0.01718673
     atom    3 type  1   force =    -0.01322393    0.00576753    0.01216462
     atom    4 type  1   force =     0.01288637   -0.00544038    0.00677605
     atom    5 type  2   force =     0.02238824   -0.00358017    0.01653699
     atom    6 type  3   force =     0.00004578    0.00013566   -0.00010286
     atom    7 type  3   force =    -0.00008109   -0.00043330    0.00008165
     atom    8 type  3   force =    -0.02231043    0.00379522   -0.01671859

     Total force =     0.050118     Total SCF correction =     0.001522
 !ASE
 
     init_run     :      0.93s CPU      0.95s WALL (       1 calls)
     electrons    :    572.91s CPU    577.70s WALL (      42 calls)
     update_pot   :     17.81s CPU     18.02s WALL (      41 calls)
     forces       :     25.05s CPU     25.11s WALL (      42 calls)

     Called by init_run:
     wfcinit      :      0.33s CPU      0.33s WALL (       1 calls)
     potinit      :      0.14s CPU      0.14s WALL (       1 calls)

     Called by electrons:
     c_bands      :    437.79s CPU    441.31s WALL (     340 calls)
     sum_band     :     85.89s CPU     86.64s WALL (     340 calls)
     v_of_rho     :      9.27s CPU      9.42s WALL (     382 calls)
     newd         :     41.40s CPU     41.54s WALL (     382 calls)
     mix_rho      :      2.18s CPU      2.19s WALL (     340 calls)

     Called by c_bands:
     init_us_2    :      2.43s CPU      2.47s WALL (    4338 calls)
     cegterg      :    424.31s CPU    427.69s WALL (    2040 calls)

     Called by *egterg:
     h_psi        :    192.11s CPU    194.54s WALL (    6872 calls)
     s_psi        :     12.66s CPU     12.74s WALL (    6872 calls)
     g_psi        :      1.89s CPU      1.89s WALL (    4826 calls)
     cdiaghg      :    116.98s CPU    117.28s WALL (    6620 calls)

     Called by h_psi:
     add_vuspsi   :     13.08s CPU     13.09s WALL (    6872 calls)

     General routines
     calbec       :     23.96s CPU     24.13s WALL (    9164 calls)
     fft          :      8.91s CPU      8.97s WALL (    6447 calls)
     ffts         :      0.23s CPU      0.24s WALL (     722 calls)
     fftw         :    163.57s CPU    165.28s WALL (  821752 calls)
     interpolate  :      1.16s CPU      1.21s WALL (     722 calls)
 
     Parallel routines
     fft_scatter  :     78.39s CPU     78.54s WALL (  828921 calls)
 
     PWSCF        : 10m21.43s CPU    10m27.54s WALL

 
   This run was terminated on:   7:29: 9  18Feb2017            

=------------------------------------------------------------------------------=
   JOB DONE.
=------------------------------------------------------------------------------=
Job  /afs/slac/g/suncat/bin/suncat-tsmpirun -x LD_LIBRARY_PATH -wdir /scratch/qe259882_vfOug pw.x -in pw.inp

TID   HOST_NAME   COMMAND_LINE            STATUS            TERMINATION_TIME
===== ========== ================  =======================  ===================
00000 suncat1015 pw.x -in pw.inp   Done                     02/18/2017 07:29:09
00001 suncat1015 pw.x -in pw.inp   Done                     02/18/2017 07:29:09
00002 suncat1015 pw.x -in pw.inp   Done                     02/18/2017 07:29:09
00003 suncat1015 pw.x -in pw.inp   Done                     02/18/2017 07:29:09
00004 suncat1015 pw.x -in pw.inp   Done                     02/18/2017 07:29:09
00005 suncat1015 pw.x -in pw.inp   Done                     02/18/2017 07:29:09
00006 suncat1015 pw.x -in pw.inp   Done                     02/18/2017 07:29:09
00007 suncat1015 pw.x -in pw.inp   Done                     02/18/2017 07:29:09
00008 suncat1015 pw.x -in pw.inp   Done                     02/18/2017 07:29:09
00009 suncat1015 pw.x -in pw.inp   Done                     02/18/2017 07:29:09
00010 suncat1015 pw.x -in pw.inp   Done                     02/18/2017 07:29:09
00011 suncat1015 pw.x -in pw.inp   Done                     02/18/2017 07:29:09
