  python dir          : /nfs/slac/g/suncatfs/aidank/software/ase-espresso/lib/python2.7/site-packages/espresso
  espresso dir        : /nfs/slac/g/suncatfs/aidank/software/espresso-qeforge/bin
  pseudo dir          : /nfs/slac/g/suncatfs/aidank/scripts/gbrv/
  ase-espresso py git : c91b4c2-git



     Program PWSCF v.5.0.2 (svn rev. 10453) starts on 18Feb2017 at  5:39:45 

     This program is part of the open-source Quantum ESPRESSO suite
     for quantum simulation of materials; please cite
         "P. Giannozzi et al., J. Phys.:Condens. Matter 21 395502 (2009);
          URL http://www.quantum-espresso.org", 
     in publications or presentations arising from this work. More details at
     http://www.quantum-espresso.org/quote

     Parallel version (MPI), running on    12 processors
     R & G space division:  proc/nbgrp/npool/nimage =      12
     Reading input from pw.inp
     Message from routine read_cards :
     DEPRECATED: no units specified in CELL_PARAMETERS card

     Current dimensions of program PWSCF are:
     Max number of different atomic species (ntypx) = 10
     Max number of k-points (npk) =  40000
     Max angular momentum in pseudopotentials (lmaxx) =  3
     Presently no symmetry can be used with electric field


     IMPORTANT: XC functional enforced from input :
     Exchange-correlation      = PBE ( 1  4  3  4 0)
     Any further DFT definition will be discarded
     Please, verify this is what you really want


     Subspace diagonalization in iterative solution of the eigenvalue problem:
     a serial algorithm will be used

 
     Parallelization info
     --------------------
     sticks:   dense  smooth     PW     G-vecs:    dense   smooth      PW
     Min          81      39     12                 9513     3338     586
     Max          82      40     16                 9522     3378     597
     Sum         981     479    161               114205    40347    7083
 


     bravais-lattice index     =            0
     lattice parameter (alat)  =       1.8897  a.u.
     unit-cell volume          =    1872.8848 (a.u.)^3
     number of atoms/cell      =            8
     number of atomic types    =            3
     number of electrons       =        84.00
     number of Kohn-Sham states=           72
     kinetic-energy cutoff     =      29.3995  Ry
     charge density cutoff     =     235.1957  Ry
     convergence threshold     =      1.0E-06
     mixing beta               =       0.1000
     number of iterations used =           15  plain     mixing
     Exchange-correlation      = PBE ( 1  4  3  4 0)
     nstep                     =           50


     celldm(1)=   1.889726  celldm(2)=   0.000000  celldm(3)=   0.000000
     celldm(4)=   0.000000  celldm(5)=   0.000000  celldm(6)=   0.000000

     crystal axes: (cart. coord. in units of alat)
               a(1) = (   5.784133   0.000000   0.000000 )  
               a(2) = (   1.446033   2.504603   0.000000 )  
               a(3) = (   0.000000   0.000000  19.157428 )  

     reciprocal axes: (cart. coord. in units 2 pi/alat)
               b(1) = (  0.172887 -0.099816  0.000000 )  
               b(2) = (  0.000000  0.399265  0.000000 )  
               b(3) = (  0.000000  0.000000  0.052199 )  


     PseudoPot. # 1 for Ag read from file:
     /nfs/slac/g/suncatfs/aidank/scripts/gbrv/Ag.UPF
     MD5 check sum: d66d668201baa78d5eb5b04ef7011058
     Pseudo is Ultrasoft + core correction, Zval = 19.0
     Generated by new atomic code, or converted to UPF format
     Using radial grid of  887 points,  6 beta functions with: 
                l(1) =   0
                l(2) =   0
                l(3) =   1
                l(4) =   1
                l(5) =   2
                l(6) =   2
     Q(r) pseudized with  6 coefficients,  rinner =    1.300   1.300   1.300
                                                       1.300   1.300

     PseudoPot. # 2 for N  read from file:
     /nfs/slac/g/suncatfs/aidank/scripts/gbrv/N.UPF
     MD5 check sum: 95339753478d7afb44899504a8723017
     Pseudo is Ultrasoft + core correction, Zval =  5.0
     Generated by new atomic code, or converted to UPF format
     Using radial grid of  729 points,  4 beta functions with: 
                l(1) =   0
                l(2) =   0
                l(3) =   1
                l(4) =   1
     Q(r) pseudized with  8 coefficients,  rinner =    0.900   0.900   0.900


     PseudoPot. # 3 for H  read from file:
     /nfs/slac/g/suncatfs/aidank/scripts/gbrv/H.UPF
     MD5 check sum: 761ae9a214b05c3daf00ab9f6b793d6f
     Pseudo is Ultrasoft, Zval =  1.0
     Generated by new atomic code, or converted to UPF format
     Using radial grid of  615 points,  2 beta functions with: 
                l(1) =   0
                l(2) =   0
     Q(r) pseudized with  8 coefficients,  rinner =    0.700

     atomic species   valence    mass     pseudopotential
        Ag1           19.00   107.86800     Ag( 1.00)
        N1             5.00    14.00670     N ( 1.00)
        H1             1.00     1.00794     H ( 1.00)

     No symmetry found



   Cartesian axes

     site n.     atom                  positions (alat units)
         1           Ag1 tau(   1) = (   5.4594866   0.7084522   7.1205000  )
         2           Ag1 tau(   2) = (   2.5674199   0.7084522   7.1205000  )
         3           Ag1 tau(   3) = (   1.1213865   1.5433200   9.4818626  )
         4           Ag1 tau(   4) = (   4.0134533   1.5433200   9.4818626  )
         5           N1  tau(   5) = (   4.5606774   1.6360632  11.4499146  )
         6           H1  tau(   6) = (   4.3968948   1.9384689  12.3883470  )
         7           H1  tau(   7) = (   4.2775666   0.6688427  11.4796067  )
         8           H1  tau(   8) = (   2.9670548   2.1962977  11.0136489  )

     number of k points=     6  Fermi-Dirac smearing, width (Ry)=  0.0073
                       cart. coord. in units 2pi/alat
        k(    1) = (   0.0000000   0.0000000   0.0000000), wk =   0.2500000
        k(    2) = (   0.0000000   0.0998162   0.0000000), wk =   0.5000000
        k(    3) = (   0.0000000  -0.1996324   0.0000000), wk =   0.2500000
        k(    4) = (  -0.0864434   0.0499081   0.0000000), wk =   0.2500000
        k(    5) = (  -0.0864434   0.1497243   0.0000000), wk =   0.5000000
        k(    6) = (  -0.0864434  -0.1497243   0.0000000), wk =   0.2500000

     Dense  grid:   114205 G-vectors     FFT dimensions: (  54,  27, 180)

     Smooth grid:    40347 G-vectors     FFT dimensions: (  40,  20, 125)

     Largest allocated arrays     est. size (Mb)     dimensions
        Kohn-Sham Wavefunctions         0.49 Mb     (     450,   72)
        NL pseudopotentials             0.59 Mb     (     450,   86)
        Each V/rho on FFT grid          0.33 Mb     (   21870)
        Each G-vector array             0.07 Mb     (    9513)
        G-vector shells                 0.03 Mb     (    3999)
     Largest temporary arrays     est. size (Mb)     dimensions
        Auxiliary wavefunctions         1.98 Mb     (     450,  288)
        Each subspace H/S matrix        1.27 Mb     (     288,  288)
        Each <psi_i|beta_j> matrix      0.09 Mb     (      86,   72)
        Arrays for rho mixing           5.01 Mb     (   21870,   15)

     Initial potential from superposition of free atoms
     Check: negative starting charge=   -0.002415

     starting charge   81.99978, renormalised to   84.00000

     negative rho (up, down):  2.474E-03 0.000E+00
 
     Adding external electric field

     Computed dipole along edir(3) : 
        Dipole               -1.1855 Ry au,         -3.0131 Debye
        Dipole field         -0.0080 Ry au
 
        Potential amp.        0.5615 Ry
        Total length         35.2972 bohr
 
     Starting wfc are   59 randomized atomic wfcs +   13 random wfc

     total cpu time spent up to now is        1.0 secs

     per-process dynamical memory:    18.4 Mb

     Self-consistent Calculation

     iteration #  1     ecut=    29.40 Ry     beta=0.10
     Davidson diagonalization with overlap
     ethr =  1.00E-02,  avg # of iterations =  7.2

     negative rho (up, down):  1.096E-03 0.000E+00
 
     Adding external electric field

     Computed dipole along edir(3) : 
        Dipole                1.3585 Ry au,          3.4529 Debye
        Dipole field          0.0091 Ry au
 
        Potential amp.       -0.6435 Ry
        Total length         35.2972 bohr
 

     total cpu time spent up to now is        5.0 secs

     total energy              =   -1203.79146698 Ry
     Harris-Foulkes estimate   =   -1207.56767447 Ry
     estimated scf accuracy    <      21.54516166 Ry

     iteration #  2     ecut=    29.40 Ry     beta=0.10
     Davidson diagonalization with overlap
     ethr =  1.00E-02,  avg # of iterations =  3.5

     negative rho (up, down):  7.853E-04 0.000E+00
 
     Adding external electric field

     Computed dipole along edir(3) : 
        Dipole                0.0091 Ry au,          0.0232 Debye
        Dipole field          0.0001 Ry au
 
        Potential amp.       -0.0043 Ry
        Total length         35.2972 bohr
 

     total cpu time spent up to now is        6.8 secs

     total energy              =   -1205.06490955 Ry
     Harris-Foulkes estimate   =   -1207.26165587 Ry
     estimated scf accuracy    <      23.96338308 Ry

     iteration #  3     ecut=    29.40 Ry     beta=0.10
     Davidson diagonalization with overlap
     ethr =  1.00E-02,  avg # of iterations =  2.5

     negative rho (up, down):  8.359E-04 0.000E+00
 
     Adding external electric field

     Computed dipole along edir(3) : 
        Dipole                0.0284 Ry au,          0.0721 Debye
        Dipole field          0.0002 Ry au
 
        Potential amp.       -0.0134 Ry
        Total length         35.2972 bohr
 

     total cpu time spent up to now is        8.4 secs

     total energy              =   -1205.91224623 Ry
     Harris-Foulkes estimate   =   -1206.12956893 Ry
     estimated scf accuracy    <       1.17662787 Ry

     iteration #  4     ecut=    29.40 Ry     beta=0.10
     Davidson diagonalization with overlap
     ethr =  1.40E-03,  avg # of iterations =  2.5

     negative rho (up, down):  9.548E-04 0.000E+00
 
     Adding external electric field

     Computed dipole along edir(3) : 
        Dipole                0.2386 Ry au,          0.6064 Debye
        Dipole field          0.0016 Ry au
 
        Potential amp.       -0.1130 Ry
        Total length         35.2972 bohr
 

     total cpu time spent up to now is       10.0 secs

     total energy              =   -1205.72070587 Ry
     Harris-Foulkes estimate   =   -1205.94286161 Ry
     estimated scf accuracy    <       0.51372392 Ry

     iteration #  5     ecut=    29.40 Ry     beta=0.10
     Davidson diagonalization with overlap
     ethr =  6.12E-04,  avg # of iterations =  3.7

     negative rho (up, down):  9.944E-04 0.000E+00
 
     Adding external electric field

     Computed dipole along edir(3) : 
        Dipole                0.2116 Ry au,          0.5378 Debye
        Dipole field          0.0014 Ry au
 
        Potential amp.       -0.1002 Ry
        Total length         35.2972 bohr
 

     total cpu time spent up to now is       11.9 secs

     total energy              =   -1205.80863622 Ry
     Harris-Foulkes estimate   =   -1205.81175315 Ry
     estimated scf accuracy    <       0.03588451 Ry

     iteration #  6     ecut=    29.40 Ry     beta=0.10
     Davidson diagonalization with overlap
     ethr =  4.27E-05,  avg # of iterations =  4.7

     negative rho (up, down):  1.403E-03 0.000E+00
 
     Adding external electric field

     Computed dipole along edir(3) : 
        Dipole                0.2269 Ry au,          0.5767 Debye
        Dipole field          0.0015 Ry au
 
        Potential amp.       -0.1075 Ry
        Total length         35.2972 bohr
 

     total cpu time spent up to now is       13.8 secs

     total energy              =   -1205.80139065 Ry
     Harris-Foulkes estimate   =   -1205.80925960 Ry
     estimated scf accuracy    <       0.02283519 Ry

     iteration #  7     ecut=    29.40 Ry     beta=0.10
     Davidson diagonalization with overlap
     ethr =  2.72E-05,  avg # of iterations =  5.5

     negative rho (up, down):  1.452E-03 0.000E+00
 
     Adding external electric field

     Computed dipole along edir(3) : 
        Dipole                0.2295 Ry au,          0.5834 Debye
        Dipole field          0.0015 Ry au
 
        Potential amp.       -0.1087 Ry
        Total length         35.2972 bohr
 

     total cpu time spent up to now is       16.0 secs

     total energy              =   -1205.80322592 Ry
     Harris-Foulkes estimate   =   -1205.80390676 Ry
     estimated scf accuracy    <       0.00578862 Ry

     iteration #  8     ecut=    29.40 Ry     beta=0.10
     Davidson diagonalization with overlap
     ethr =  6.89E-06,  avg # of iterations =  2.8

     negative rho (up, down):  1.732E-03 0.000E+00
 
     Adding external electric field

     Computed dipole along edir(3) : 
        Dipole                0.1853 Ry au,          0.4709 Debye
        Dipole field          0.0012 Ry au
 
        Potential amp.       -0.0878 Ry
        Total length         35.2972 bohr
 

     total cpu time spent up to now is       17.5 secs

     total energy              =   -1205.80286580 Ry
     Harris-Foulkes estimate   =   -1205.80357341 Ry
     estimated scf accuracy    <       0.00242012 Ry

     iteration #  9     ecut=    29.40 Ry     beta=0.10
     Davidson diagonalization with overlap
     ethr =  2.88E-06,  avg # of iterations =  3.5

     negative rho (up, down):  1.933E-03 0.000E+00
 
     Adding external electric field

     Computed dipole along edir(3) : 
        Dipole                0.1693 Ry au,          0.4302 Debye
        Dipole field          0.0011 Ry au
 
        Potential amp.       -0.0802 Ry
        Total length         35.2972 bohr
 

     total cpu time spent up to now is       19.4 secs

     total energy              =   -1205.80313325 Ry
     Harris-Foulkes estimate   =   -1205.80322688 Ry
     estimated scf accuracy    <       0.00039401 Ry

     iteration # 10     ecut=    29.40 Ry     beta=0.10
     Davidson diagonalization with overlap
     ethr =  4.69E-07,  avg # of iterations =  2.8

     negative rho (up, down):  2.075E-03 0.000E+00
 
     Adding external electric field

     Computed dipole along edir(3) : 
        Dipole                0.1716 Ry au,          0.4362 Debye
        Dipole field          0.0012 Ry au
 
        Potential amp.       -0.0813 Ry
        Total length         35.2972 bohr
 

     total cpu time spent up to now is       20.9 secs

     total energy              =   -1205.80314956 Ry
     Harris-Foulkes estimate   =   -1205.80316381 Ry
     estimated scf accuracy    <       0.00020606 Ry

     iteration # 11     ecut=    29.40 Ry     beta=0.10
     Davidson diagonalization with overlap
     ethr =  2.45E-07,  avg # of iterations =  1.7

     negative rho (up, down):  2.210E-03 0.000E+00
 
     Adding external electric field

     Computed dipole along edir(3) : 
        Dipole                0.1696 Ry au,          0.4311 Debye
        Dipole field          0.0011 Ry au
 
        Potential amp.       -0.0803 Ry
        Total length         35.2972 bohr
 

     total cpu time spent up to now is       22.4 secs

     total energy              =   -1205.80316804 Ry
     Harris-Foulkes estimate   =   -1205.80317115 Ry
     estimated scf accuracy    <       0.00002198 Ry

     iteration # 12     ecut=    29.40 Ry     beta=0.10
     Davidson diagonalization with overlap
     ethr =  2.62E-08,  avg # of iterations =  2.0

     negative rho (up, down):  2.311E-03 0.000E+00
 
     Adding external electric field

     Computed dipole along edir(3) : 
        Dipole                0.1678 Ry au,          0.4266 Debye
        Dipole field          0.0011 Ry au
 
        Potential amp.       -0.0795 Ry
        Total length         35.2972 bohr
 

     total cpu time spent up to now is       23.8 secs

     total energy              =   -1205.80317243 Ry
     Harris-Foulkes estimate   =   -1205.80317441 Ry
     estimated scf accuracy    <       0.00001319 Ry

     iteration # 13     ecut=    29.40 Ry     beta=0.10
     Davidson diagonalization with overlap
     ethr =  1.57E-08,  avg # of iterations =  1.0

     negative rho (up, down):  2.337E-03 0.000E+00
 
     Adding external electric field

     Computed dipole along edir(3) : 
        Dipole                0.1672 Ry au,          0.4249 Debye
        Dipole field          0.0011 Ry au
 
        Potential amp.       -0.0792 Ry
        Total length         35.2972 bohr
 

     total cpu time spent up to now is       25.2 secs

     total energy              =   -1205.80317372 Ry
     Harris-Foulkes estimate   =   -1205.80317426 Ry
     estimated scf accuracy    <       0.00000262 Ry

     iteration # 14     ecut=    29.40 Ry     beta=0.10
     Davidson diagonalization with overlap
     ethr =  3.12E-09,  avg # of iterations =  2.0

     negative rho (up, down):  2.365E-03 0.000E+00
 
     Adding external electric field

     Computed dipole along edir(3) : 
        Dipole                0.1683 Ry au,          0.4279 Debye
        Dipole field          0.0011 Ry au
 
        Potential amp.       -0.0797 Ry
        Total length         35.2972 bohr
 

     total cpu time spent up to now is       26.6 secs

     End of self-consistent calculation

          k = 0.0000 0.0000 0.0000 (  5071 PWs)   bands (ev):

   -90.4990 -90.2325 -90.1686 -90.1197 -54.0049 -53.9730 -53.9148 -53.7575
   -53.6727 -53.6473 -53.6248 -53.6068 -53.6046 -53.5837 -53.5380 -53.5328
   -15.4933  -6.2381  -5.2875  -4.6059  -4.5055  -4.3721  -4.1462  -3.5270
    -3.1490  -2.9927  -2.9588  -2.8764  -2.8551  -2.7589  -2.6115  -2.1307
    -1.9740  -1.8320  -1.7588  -1.5313  -1.4955  -1.4437  -1.2180  -1.1176
    -0.3031   0.6933   1.4480   2.6649   3.4951   4.5812   5.3362   5.8215
     6.4553   6.6681   7.5715   8.0567   9.0884   9.3360   9.4878   9.9125
    10.5181  11.0476  11.1309  11.4172  11.6280  12.2779  12.6348  12.8231
    13.2012  13.8395  13.9644  14.5173  15.0764  15.1416  15.8274  16.5930

          k = 0.0000 0.0998 0.0000 (  5031 PWs)   bands (ev):

   -90.4961 -90.2293 -90.1661 -90.1170 -54.0003 -53.9658 -53.9542 -53.7394
   -53.7107 -53.6501 -53.6447 -53.6350 -53.6043 -53.5879 -53.5655 -53.5376
   -15.0831  -6.2875  -4.8497  -4.2586  -4.0908  -3.7951  -3.6917  -3.4284
    -3.3620  -3.2536  -2.9638  -2.8340  -2.7042  -2.5296  -2.4869  -2.3730
    -2.2773  -2.1750  -2.0225  -1.9063  -1.7536  -1.5388  -1.3955  -0.8779
    -0.7003   1.5445   2.1411   3.2522   4.9814   6.0148   6.5426   6.9530
     7.8994   8.1871   8.4020   8.7467   9.0718   9.4136   9.6914  10.6581
    10.6685  10.8910  11.1309  11.4829  12.0473  12.3475  12.4537  13.2783
    13.4735  13.6539  14.0849  14.4162  14.8709  15.0521  15.4142  15.5477

          k = 0.0000-0.1996 0.0000 (  5048 PWs)   bands (ev):

   -90.4932 -90.2263 -90.1633 -90.1143 -54.0026 -53.9934 -53.9608 -53.7612
   -53.7440 -53.6664 -53.6413 -53.6373 -53.6178 -53.5963 -53.5644 -53.5447
   -14.5929  -6.9198  -5.0559  -4.5815  -4.4201  -4.3605  -4.1126  -3.9149
    -3.7452  -3.3964  -2.9295  -2.7197  -2.5310  -2.1860  -1.8903  -1.6883
    -1.5951  -1.5721  -1.3118  -1.1727  -1.1152  -1.0953  -0.8665  -0.4660
     2.1462   2.4977   3.0415   3.3584   4.8157   5.9472   6.3364   6.5686
     8.0482   8.4189   8.9672   9.7543  10.1153  10.4398  10.7112  10.8888
    11.0633  11.1025  11.2387  11.2603  11.5098  12.2358  12.3503  12.4941
    12.5746  12.7061  13.0732  13.2378  13.5813  13.8028  14.2427  14.4538

          k =-0.0864 0.0499 0.0000 (  5024 PWs)   bands (ev):

   -90.4989 -90.2319 -90.1692 -90.1198 -54.0041 -53.9640 -53.9135 -53.7236
   -53.6683 -53.6611 -53.6451 -53.6148 -53.6083 -53.5876 -53.5365 -53.5324
   -15.4823  -6.1413  -5.0858  -4.1928  -3.9836  -3.8622  -3.7456  -3.4066
    -3.2455  -3.1948  -2.9866  -2.8985  -2.6223  -2.4585  -2.4144  -2.3546
    -2.2541  -2.1903  -2.1230  -2.0304  -1.9371  -1.7562  -1.4926  -1.4058
    -1.0542  -0.2761   1.4711   2.4201   3.6194   5.2918   5.9353   6.2073
     6.6664   6.8401   7.1669   7.8898   8.2884   8.5475   9.1824   9.7519
    10.5022  10.8950  11.2367  12.0111  12.2329  12.6751  13.8159  14.0172
    14.5411  14.7626  15.5382  15.8505  16.0589  16.4861  16.5363  17.1481

          k =-0.0864 0.1497 0.0000 (  5031 PWs)   bands (ev):

   -90.4961 -90.2293 -90.1661 -90.1170 -54.0003 -53.9638 -53.9563 -53.7378
   -53.7116 -53.6553 -53.6434 -53.6317 -53.6040 -53.5879 -53.5656 -53.5377
   -15.0832  -6.2864  -4.8406  -4.2676  -4.0069  -3.7541  -3.7025  -3.5470
    -3.3576  -3.2468  -2.9662  -2.8594  -2.6897  -2.5544  -2.4533  -2.3526
    -2.3369  -2.1703  -2.0747  -1.9139  -1.8225  -1.5150  -1.4300  -0.8627
    -0.5513   1.7122   2.0674   3.3475   4.8750   5.9715   6.5037   6.9032
     7.8095   8.1050   8.3508   8.7473   9.0148   9.4441   9.6451  10.5657
    10.6927  10.9943  11.1980  11.6541  12.0431  12.2910  12.5295  13.4224
    13.6074  13.7357  14.1623  14.4811  14.8480  15.1538  15.4273  15.5092

          k =-0.0864-0.1497 0.0000 (  5038 PWs)   bands (ev):

   -90.4932 -90.2263 -90.1633 -90.1143 -54.0010 -53.9923 -53.9558 -53.7500
   -53.7163 -53.6934 -53.6528 -53.6393 -53.6238 -53.5989 -53.5643 -53.5438
   -14.5995  -6.9220  -4.9820  -4.0598  -3.7800  -3.7050  -3.5489  -3.4932
    -3.4807  -3.3055  -2.9671  -2.9476  -2.7698  -2.7113  -2.5605  -2.5027
    -2.3145  -2.1196  -1.8295  -1.6917  -1.4559  -1.2660  -0.7038  -0.3856
     1.6913   2.0146   3.3211   4.3938   5.5595   7.6593   8.1162   8.2111
     8.3535   8.5051   8.8720   9.1559   9.5518   9.6118   9.8718  10.0179
    10.5393  10.8208  11.0130  11.4292  11.8511  11.9501  12.3401  12.4766
    12.9382  13.6135  13.6940  13.7586  14.2645  14.5704  14.7908  14.8620

     the Fermi energy is     1.9564 ev

!    total energy              =   -1205.80318036 Ry
     Harris-Foulkes estimate   =   -1205.80317143 Ry
     estimated scf accuracy    <       0.00000034 Ry

     The total energy is the sum of the following terms:

     one-electron contribution =   -6044.62626052 Ry
     hartree contribution      =    3020.31995891 Ry
     xc contribution           =    -123.30842126 Ry
     ewald contribution        =    1941.81887241 Ry
     electric field correction =       0.00019012 Ry
     smearing contrib. (-TS)   =      -0.00752002 Ry

     convergence has been achieved in  14 iterations

     Forces acting on atoms (Ry/au):


     negative rho (up, down):  2.365E-03 0.000E+00
     atom    1 type  1   force =    -0.00229234    0.00216848   -0.00909155
     atom    2 type  1   force =     0.00307053   -0.00161963   -0.01220642
     atom    3 type  1   force =     0.00593648   -0.00879925    0.02697268
     atom    4 type  1   force =    -0.02965685    0.02133625   -0.08391914
     atom    5 type  2   force =     0.00831421    0.00775560    0.02973893
     atom    6 type  3   force =    -0.01114207    0.03828127    0.04902540
     atom    7 type  3   force =     0.00284909   -0.05444048    0.02147624
     atom    8 type  3   force =     0.02292096   -0.00468224   -0.02199614

     Total force =     0.137630     Total SCF correction =     0.003414
 !ASE
 
     init_run     :      0.91s CPU      0.93s WALL (       1 calls)
     electrons    :     25.42s CPU     25.58s WALL (       1 calls)
     forces       :      0.59s CPU      0.60s WALL (       1 calls)

     Called by init_run:
     wfcinit      :      0.33s CPU      0.33s WALL (       1 calls)
     potinit      :      0.14s CPU      0.14s WALL (       1 calls)

     Called by electrons:
     c_bands      :     19.89s CPU     20.02s WALL (      14 calls)
     sum_band     :      3.50s CPU      3.51s WALL (      14 calls)
     v_of_rho     :      0.36s CPU      0.36s WALL (      15 calls)
     newd         :      1.63s CPU      1.63s WALL (      15 calls)
     mix_rho      :      0.10s CPU      0.11s WALL (      14 calls)

     Called by c_bands:
     init_us_2    :      0.10s CPU      0.10s WALL (     180 calls)
     cegterg      :     19.34s CPU     19.45s WALL (      84 calls)

     Called by *egterg:
     h_psi        :      8.16s CPU      8.26s WALL (     362 calls)
     s_psi        :      0.54s CPU      0.54s WALL (     362 calls)
     g_psi        :      0.08s CPU      0.08s WALL (     272 calls)
     cdiaghg      :      6.61s CPU      6.63s WALL (     356 calls)

     Called by h_psi:
     add_vuspsi   :      0.55s CPU      0.56s WALL (     362 calls)

     General routines
     calbec       :      1.01s CPU      1.01s WALL (     452 calls)
     fft          :      0.30s CPU      0.30s WALL (     247 calls)
     ffts         :      0.01s CPU      0.01s WALL (      29 calls)
     fftw         :      6.77s CPU      6.87s WALL (   34558 calls)
     interpolate  :      0.05s CPU      0.05s WALL (      29 calls)
 
     Parallel routines
     fft_scatter  :      3.17s CPU      3.18s WALL (   34834 calls)
 
     PWSCF        :    27.01s CPU        27.42s WALL

 
   This run was terminated on:   5:40:12  18Feb2017            

=------------------------------------------------------------------------------=
   JOB DONE.
=------------------------------------------------------------------------------=
Job  /afs/slac/g/suncat/bin/suncat-tsmpirun -x LD_LIBRARY_PATH -wdir /scratch/qe259882_v04Bz pw.x -in pw.inp

TID   HOST_NAME   COMMAND_LINE            STATUS            TERMINATION_TIME
===== ========== ================  =======================  ===================
00000 suncat1015 pw.x -in pw.inp   Done                     02/18/2017 05:40:12
00001 suncat1015 pw.x -in pw.inp   Done                     02/18/2017 05:40:12
00002 suncat1015 pw.x -in pw.inp   Done                     02/18/2017 05:40:12
00003 suncat1015 pw.x -in pw.inp   Done                     02/18/2017 05:40:12
00004 suncat1015 pw.x -in pw.inp   Done                     02/18/2017 05:40:12
00005 suncat1015 pw.x -in pw.inp   Done                     02/18/2017 05:40:12
00006 suncat1015 pw.x -in pw.inp   Done                     02/18/2017 05:40:12
00007 suncat1015 pw.x -in pw.inp   Done                     02/18/2017 05:40:12
00008 suncat1015 pw.x -in pw.inp   Done                     02/18/2017 05:40:12
00009 suncat1015 pw.x -in pw.inp   Done                     02/18/2017 05:40:12
00010 suncat1015 pw.x -in pw.inp   Done                     02/18/2017 05:40:12
00011 suncat1015 pw.x -in pw.inp   Done                     02/18/2017 05:40:12
