  python dir          : /nfs/slac/g/suncatfs/aidank/software/ase-espresso/lib/python2.7/site-packages/espresso
  espresso dir        : /nfs/slac/g/suncatfs/aidank/software/espresso-qeforge/bin
  pseudo dir          : /nfs/slac/g/suncatfs/aidank/scripts/gbrv/
  ase-espresso py git : c91b4c2-git



     Program PWSCF v.5.0.2 (svn rev. 10453) starts on 18Feb2017 at  5:40:18 

     This program is part of the open-source Quantum ESPRESSO suite
     for quantum simulation of materials; please cite
         "P. Giannozzi et al., J. Phys.:Condens. Matter 21 395502 (2009);
          URL http://www.quantum-espresso.org", 
     in publications or presentations arising from this work. More details at
     http://www.quantum-espresso.org/quote

     Parallel version (MPI), running on    12 processors
     R & G space division:  proc/nbgrp/npool/nimage =      12
     Reading input from pw.inp
     Message from routine read_cards :
     DEPRECATED: no units specified in CELL_PARAMETERS card

     Current dimensions of program PWSCF are:
     Max number of different atomic species (ntypx) = 10
     Max number of k-points (npk) =  40000
     Max angular momentum in pseudopotentials (lmaxx) =  3
     Presently no symmetry can be used with electric field


     IMPORTANT: XC functional enforced from input :
     Exchange-correlation      = PBE ( 1  4  3  4 0)
     Any further DFT definition will be discarded
     Please, verify this is what you really want


     Subspace diagonalization in iterative solution of the eigenvalue problem:
     a serial algorithm will be used

 
     Parallelization info
     --------------------
     sticks:   dense  smooth     PW     G-vecs:    dense   smooth      PW
     Min          81      39     12                 9513     3338     586
     Max          82      40     16                 9522     3378     597
     Sum         981     479    161               114205    40347    7083
 


     bravais-lattice index     =            0
     lattice parameter (alat)  =       1.8897  a.u.
     unit-cell volume          =    1872.8848 (a.u.)^3
     number of atoms/cell      =            8
     number of atomic types    =            3
     number of electrons       =        84.00
     number of Kohn-Sham states=           72
     kinetic-energy cutoff     =      29.3995  Ry
     charge density cutoff     =     235.1957  Ry
     convergence threshold     =      1.0E-06
     mixing beta               =       0.1000
     number of iterations used =           15  plain     mixing
     Exchange-correlation      = PBE ( 1  4  3  4 0)
     nstep                     =           50


     celldm(1)=   1.889726  celldm(2)=   0.000000  celldm(3)=   0.000000
     celldm(4)=   0.000000  celldm(5)=   0.000000  celldm(6)=   0.000000

     crystal axes: (cart. coord. in units of alat)
               a(1) = (   5.784133   0.000000   0.000000 )  
               a(2) = (   1.446033   2.504603   0.000000 )  
               a(3) = (   0.000000   0.000000  19.157428 )  

     reciprocal axes: (cart. coord. in units 2 pi/alat)
               b(1) = (  0.172887 -0.099816  0.000000 )  
               b(2) = (  0.000000  0.399265  0.000000 )  
               b(3) = (  0.000000  0.000000  0.052199 )  


     PseudoPot. # 1 for Ag read from file:
     /nfs/slac/g/suncatfs/aidank/scripts/gbrv/Ag.UPF
     MD5 check sum: d66d668201baa78d5eb5b04ef7011058
     Pseudo is Ultrasoft + core correction, Zval = 19.0
     Generated by new atomic code, or converted to UPF format
     Using radial grid of  887 points,  6 beta functions with: 
                l(1) =   0
                l(2) =   0
                l(3) =   1
                l(4) =   1
                l(5) =   2
                l(6) =   2
     Q(r) pseudized with  6 coefficients,  rinner =    1.300   1.300   1.300
                                                       1.300   1.300

     PseudoPot. # 2 for N  read from file:
     /nfs/slac/g/suncatfs/aidank/scripts/gbrv/N.UPF
     MD5 check sum: 95339753478d7afb44899504a8723017
     Pseudo is Ultrasoft + core correction, Zval =  5.0
     Generated by new atomic code, or converted to UPF format
     Using radial grid of  729 points,  4 beta functions with: 
                l(1) =   0
                l(2) =   0
                l(3) =   1
                l(4) =   1
     Q(r) pseudized with  8 coefficients,  rinner =    0.900   0.900   0.900


     PseudoPot. # 3 for H  read from file:
     /nfs/slac/g/suncatfs/aidank/scripts/gbrv/H.UPF
     MD5 check sum: 761ae9a214b05c3daf00ab9f6b793d6f
     Pseudo is Ultrasoft, Zval =  1.0
     Generated by new atomic code, or converted to UPF format
     Using radial grid of  615 points,  2 beta functions with: 
                l(1) =   0
                l(2) =   0
     Q(r) pseudized with  8 coefficients,  rinner =    0.700

     atomic species   valence    mass     pseudopotential
        Ag1           19.00   107.86800     Ag( 1.00)
        N1             5.00    14.00670     N ( 1.00)
        H1             1.00     1.00794     H ( 1.00)

     No symmetry found



   Cartesian axes

     site n.     atom                  positions (alat units)
         1           Ag1 tau(   1) = (   5.4594866   0.7084522   7.1205000  )
         2           Ag1 tau(   2) = (   2.5674199   0.7084522   7.1205000  )
         3           Ag1 tau(   3) = (   1.1213865   1.5433200   9.4818626  )
         4           Ag1 tau(   4) = (   4.0134533   1.5433200   9.4818626  )
         5           N1  tau(   5) = (   4.3870115   1.6016124  11.5089882  )
         6           H1  tau(   6) = (   4.3068349   1.8079815  12.4763049  )
         7           H1  tau(   7) = (   4.1049897   0.6333721  11.4485173  )
         8           H1  tau(   8) = (   3.0383178   2.1715255  11.1490623  )

     number of k points=     6  Fermi-Dirac smearing, width (Ry)=  0.0073
                       cart. coord. in units 2pi/alat
        k(    1) = (   0.0000000   0.0000000   0.0000000), wk =   0.2500000
        k(    2) = (   0.0000000   0.0998162   0.0000000), wk =   0.5000000
        k(    3) = (   0.0000000  -0.1996324   0.0000000), wk =   0.2500000
        k(    4) = (  -0.0864434   0.0499081   0.0000000), wk =   0.2500000
        k(    5) = (  -0.0864434   0.1497243   0.0000000), wk =   0.5000000
        k(    6) = (  -0.0864434  -0.1497243   0.0000000), wk =   0.2500000

     Dense  grid:   114205 G-vectors     FFT dimensions: (  54,  27, 180)

     Smooth grid:    40347 G-vectors     FFT dimensions: (  40,  20, 125)

     Largest allocated arrays     est. size (Mb)     dimensions
        Kohn-Sham Wavefunctions         0.49 Mb     (     450,   72)
        NL pseudopotentials             0.59 Mb     (     450,   86)
        Each V/rho on FFT grid          0.33 Mb     (   21870)
        Each G-vector array             0.07 Mb     (    9513)
        G-vector shells                 0.03 Mb     (    3999)
     Largest temporary arrays     est. size (Mb)     dimensions
        Auxiliary wavefunctions         1.98 Mb     (     450,  288)
        Each subspace H/S matrix        1.27 Mb     (     288,  288)
        Each <psi_i|beta_j> matrix      0.09 Mb     (      86,   72)
        Arrays for rho mixing           5.01 Mb     (   21870,   15)

     Initial potential from superposition of free atoms
     Check: negative starting charge=   -0.002381

     starting charge   81.99978, renormalised to   84.00000

     negative rho (up, down):  2.439E-03 0.000E+00
 
     Adding external electric field

     Computed dipole along edir(3) : 
        Dipole               -1.2079 Ry au,         -3.0702 Debye
        Dipole field         -0.0081 Ry au
 
        Potential amp.        0.5721 Ry
        Total length         35.2972 bohr
 
     Starting wfc are   59 randomized atomic wfcs +   13 random wfc

     total cpu time spent up to now is        1.0 secs

     per-process dynamical memory:    18.4 Mb

     Self-consistent Calculation

     iteration #  1     ecut=    29.40 Ry     beta=0.10
     Davidson diagonalization with overlap
     ethr =  1.00E-02,  avg # of iterations =  7.0

     negative rho (up, down):  1.076E-03 0.000E+00
 
     Adding external electric field

     Computed dipole along edir(3) : 
        Dipole                1.4975 Ry au,          3.8063 Debye
        Dipole field          0.0100 Ry au
 
        Potential amp.       -0.7093 Ry
        Total length         35.2972 bohr
 

     total cpu time spent up to now is        4.9 secs

     total energy              =   -1203.71124522 Ry
     Harris-Foulkes estimate   =   -1207.54651326 Ry
     estimated scf accuracy    <      21.85273121 Ry

     iteration #  2     ecut=    29.40 Ry     beta=0.10
     Davidson diagonalization with overlap
     ethr =  1.00E-02,  avg # of iterations =  3.7

     negative rho (up, down):  6.687E-04 0.000E+00
 
     Adding external electric field

     Computed dipole along edir(3) : 
        Dipole                0.0328 Ry au,          0.0835 Debye
        Dipole field          0.0002 Ry au
 
        Potential amp.       -0.0156 Ry
        Total length         35.2972 bohr
 

     total cpu time spent up to now is        6.8 secs

     total energy              =   -1204.70034733 Ry
     Harris-Foulkes estimate   =   -1207.39056341 Ry
     estimated scf accuracy    <      32.34492945 Ry

     iteration #  3     ecut=    29.40 Ry     beta=0.10
     Davidson diagonalization with overlap
     ethr =  1.00E-02,  avg # of iterations =  2.5

     negative rho (up, down):  7.077E-04 0.000E+00
 
     Adding external electric field

     Computed dipole along edir(3) : 
        Dipole                0.1254 Ry au,          0.3187 Debye
        Dipole field          0.0008 Ry au
 
        Potential amp.       -0.0594 Ry
        Total length         35.2972 bohr
 

     total cpu time spent up to now is        8.4 secs

     total energy              =   -1205.94714577 Ry
     Harris-Foulkes estimate   =   -1206.16218532 Ry
     estimated scf accuracy    <       1.23036281 Ry

     iteration #  4     ecut=    29.40 Ry     beta=0.10
     Davidson diagonalization with overlap
     ethr =  1.46E-03,  avg # of iterations =  2.7

     negative rho (up, down):  8.315E-04 0.000E+00
 
     Adding external electric field

     Computed dipole along edir(3) : 
        Dipole                0.3126 Ry au,          0.7945 Debye
        Dipole field          0.0021 Ry au
 
        Potential amp.       -0.1481 Ry
        Total length         35.2972 bohr
 

     total cpu time spent up to now is        9.9 secs

     total energy              =   -1205.74465791 Ry
     Harris-Foulkes estimate   =   -1205.97443149 Ry
     estimated scf accuracy    <       0.54476825 Ry

     iteration #  5     ecut=    29.40 Ry     beta=0.10
     Davidson diagonalization with overlap
     ethr =  6.49E-04,  avg # of iterations =  4.2

     negative rho (up, down):  1.039E-03 0.000E+00
 
     Adding external electric field

     Computed dipole along edir(3) : 
        Dipole                0.3198 Ry au,          0.8129 Debye
        Dipole field          0.0021 Ry au
 
        Potential amp.       -0.1515 Ry
        Total length         35.2972 bohr
 

     total cpu time spent up to now is       11.9 secs

     total energy              =   -1205.82246385 Ry
     Harris-Foulkes estimate   =   -1205.83189166 Ry
     estimated scf accuracy    <       0.03452455 Ry

     iteration #  6     ecut=    29.40 Ry     beta=0.10
     Davidson diagonalization with overlap
     ethr =  4.11E-05,  avg # of iterations =  5.3

     negative rho (up, down):  1.200E-03 0.000E+00
 
     Adding external electric field

     Computed dipole along edir(3) : 
        Dipole                0.3408 Ry au,          0.8663 Debye
        Dipole field          0.0023 Ry au
 
        Potential amp.       -0.1614 Ry
        Total length         35.2972 bohr
 

     total cpu time spent up to now is       14.0 secs

     total energy              =   -1205.82277324 Ry
     Harris-Foulkes estimate   =   -1205.82546297 Ry
     estimated scf accuracy    <       0.01544719 Ry

     iteration #  7     ecut=    29.40 Ry     beta=0.10
     Davidson diagonalization with overlap
     ethr =  1.84E-05,  avg # of iterations =  4.7

     negative rho (up, down):  1.381E-03 0.000E+00
 
     Adding external electric field

     Computed dipole along edir(3) : 
        Dipole                0.3257 Ry au,          0.8279 Debye
        Dipole field          0.0022 Ry au
 
        Potential amp.       -0.1543 Ry
        Total length         35.2972 bohr
 

     total cpu time spent up to now is       15.9 secs

     total energy              =   -1205.82278777 Ry
     Harris-Foulkes estimate   =   -1205.82355208 Ry
     estimated scf accuracy    <       0.00483029 Ry

     iteration #  8     ecut=    29.40 Ry     beta=0.10
     Davidson diagonalization with overlap
     ethr =  5.75E-06,  avg # of iterations =  4.2

     negative rho (up, down):  1.619E-03 0.000E+00
 
     Adding external electric field

     Computed dipole along edir(3) : 
        Dipole                0.2790 Ry au,          0.7092 Debye
        Dipole field          0.0019 Ry au
 
        Potential amp.       -0.1322 Ry
        Total length         35.2972 bohr
 

     total cpu time spent up to now is       17.8 secs

     total energy              =   -1205.82254449 Ry
     Harris-Foulkes estimate   =   -1205.82317033 Ry
     estimated scf accuracy    <       0.00218322 Ry

     iteration #  9     ecut=    29.40 Ry     beta=0.10
     Davidson diagonalization with overlap
     ethr =  2.60E-06,  avg # of iterations =  3.3

     negative rho (up, down):  1.859E-03 0.000E+00
 
     Adding external electric field

     Computed dipole along edir(3) : 
        Dipole                0.2717 Ry au,          0.6905 Debye
        Dipole field          0.0018 Ry au
 
        Potential amp.       -0.1287 Ry
        Total length         35.2972 bohr
 

     total cpu time spent up to now is       19.5 secs

     total energy              =   -1205.82272014 Ry
     Harris-Foulkes estimate   =   -1205.82286031 Ry
     estimated scf accuracy    <       0.00053459 Ry

     iteration # 10     ecut=    29.40 Ry     beta=0.10
     Davidson diagonalization with overlap
     ethr =  6.36E-07,  avg # of iterations =  2.7

     negative rho (up, down):  1.910E-03 0.000E+00
 
     Adding external electric field

     Computed dipole along edir(3) : 
        Dipole                0.2682 Ry au,          0.6816 Debye
        Dipole field          0.0018 Ry au
 
        Potential amp.       -0.1270 Ry
        Total length         35.2972 bohr
 

     total cpu time spent up to now is       21.1 secs

     total energy              =   -1205.82279581 Ry
     Harris-Foulkes estimate   =   -1205.82280562 Ry
     estimated scf accuracy    <       0.00004283 Ry

     iteration # 11     ecut=    29.40 Ry     beta=0.10
     Davidson diagonalization with overlap
     ethr =  5.10E-08,  avg # of iterations =  1.0

     negative rho (up, down):  2.076E-03 0.000E+00
 
     Adding external electric field

     Computed dipole along edir(3) : 
        Dipole                0.2641 Ry au,          0.6712 Debye
        Dipole field          0.0018 Ry au
 
        Potential amp.       -0.1251 Ry
        Total length         35.2972 bohr
 

     total cpu time spent up to now is       22.5 secs

     total energy              =   -1205.82280048 Ry
     Harris-Foulkes estimate   =   -1205.82281203 Ry
     estimated scf accuracy    <       0.00002383 Ry

     iteration # 12     ecut=    29.40 Ry     beta=0.10
     Davidson diagonalization with overlap
     ethr =  2.84E-08,  avg # of iterations =  2.0

     negative rho (up, down):  2.142E-03 0.000E+00
 
     Adding external electric field

     Computed dipole along edir(3) : 
        Dipole                0.2636 Ry au,          0.6700 Debye
        Dipole field          0.0018 Ry au
 
        Potential amp.       -0.1249 Ry
        Total length         35.2972 bohr
 

     total cpu time spent up to now is       23.9 secs

     total energy              =   -1205.82280549 Ry
     Harris-Foulkes estimate   =   -1205.82280453 Ry
     estimated scf accuracy    <       0.00000414 Ry

     iteration # 13     ecut=    29.40 Ry     beta=0.10
     Davidson diagonalization with overlap
     ethr =  4.93E-09,  avg # of iterations =  1.0

     negative rho (up, down):  2.187E-03 0.000E+00
 
     Adding external electric field

     Computed dipole along edir(3) : 
        Dipole                0.2626 Ry au,          0.6674 Debye
        Dipole field          0.0018 Ry au
 
        Potential amp.       -0.1244 Ry
        Total length         35.2972 bohr
 

     total cpu time spent up to now is       25.2 secs

     total energy              =   -1205.82280731 Ry
     Harris-Foulkes estimate   =   -1205.82280937 Ry
     estimated scf accuracy    <       0.00000251 Ry

     iteration # 14     ecut=    29.40 Ry     beta=0.10
     Davidson diagonalization with overlap
     ethr =  2.98E-09,  avg # of iterations =  2.0

     negative rho (up, down):  2.218E-03 0.000E+00
 
     Adding external electric field

     Computed dipole along edir(3) : 
        Dipole                0.2632 Ry au,          0.6690 Debye
        Dipole field          0.0018 Ry au
 
        Potential amp.       -0.1247 Ry
        Total length         35.2972 bohr
 

     total cpu time spent up to now is       26.7 secs

     End of self-consistent calculation

          k = 0.0000 0.0000 0.0000 (  5071 PWs)   bands (ev):

   -90.2950 -90.0114 -89.9613 -89.9438 -53.7931 -53.7706 -53.7388 -53.5399
   -53.4537 -53.4507 -53.4242 -53.4054 -53.3890 -53.3849 -53.3694 -53.3341
   -16.0186  -6.7217  -5.2772  -4.6813  -4.3085  -4.1945  -3.9374  -3.4665
    -3.0332  -2.8244  -2.7911  -2.6742  -2.6453  -2.5847  -2.4932  -1.9546
    -1.7854  -1.6194  -1.5780  -1.3798  -1.3036  -1.2501  -1.0505  -0.9068
    -0.5169   0.7682   1.8845   2.7697   3.5307   4.2699   5.2402   5.7536
     6.6293   6.6453   7.4848   8.1496   8.9434   9.3670   9.4219   9.6699
    10.2588  10.9710  11.1019  11.3672  11.5809  12.3840  12.6292  12.8110
    13.2174  13.8464  13.9794  14.5098  15.0395  15.1199  15.8421  16.3880

          k = 0.0000 0.0998 0.0000 (  5031 PWs)   bands (ev):

   -90.2921 -90.0082 -89.9583 -89.9415 -53.7983 -53.7722 -53.7587 -53.5209
   -53.4926 -53.4560 -53.4309 -53.4226 -53.4147 -53.4073 -53.3798 -53.3342
   -15.6253  -6.7602  -5.1855  -4.0929  -3.9165  -3.6069  -3.4992  -3.2449
    -3.2009  -3.1035  -2.7618  -2.6562  -2.5185  -2.3250  -2.3101  -2.2108
    -2.0981  -2.0022  -1.8462  -1.7067  -1.5900  -1.3558  -1.2235  -0.9596
    -0.7668   1.7207   2.2336   3.6772   4.9697   5.7789   6.5830   6.8313
     7.8951   8.1433   8.5011   8.7071   9.1618   9.2984   9.6092  10.6828
    10.7254  10.8758  11.1709  11.4531  12.0772  12.3589  12.4425  13.1742
    13.3788  13.6436  14.0158  14.3706  14.7191  15.1336  15.2706  15.4645

          k = 0.0000-0.1996 0.0000 (  5048 PWs)   bands (ev):

   -90.2892 -90.0053 -89.9553 -89.9390 -53.8321 -53.7781 -53.7558 -53.5423
   -53.5250 -53.4561 -53.4535 -53.4403 -53.4204 -53.4088 -53.3723 -53.3384
   -15.1599  -7.2889  -5.3564  -4.3932  -4.2497  -4.1760  -3.9212  -3.7918
    -3.6501  -3.2005  -2.8033  -2.6154  -2.3487  -2.0940  -1.7007  -1.4705
    -1.4002  -1.3754  -1.1470  -0.9880  -0.9817  -0.9044  -0.8841  -0.6085
     2.4959   2.6309   3.3567   3.4907   5.2760   5.8068   6.5554   6.7911
     8.0229   8.5200   8.8114   9.3630   9.8308  10.2053  10.6517  10.8821
    10.9514  11.0366  11.1233  11.2516  11.5285  12.2611  12.3646  12.4868
    12.5835  12.7615  13.0146  13.1703  13.5832  13.9474  14.2425  14.4424

          k =-0.0864 0.0499 0.0000 (  5024 PWs)   bands (ev):

   -90.2949 -90.0109 -89.9615 -89.9442 -53.7921 -53.7602 -53.7373 -53.5061
   -53.4636 -53.4494 -53.4423 -53.4199 -53.3906 -53.3883 -53.3691 -53.3330
   -16.0088  -6.6605  -5.3338  -4.0332  -3.8167  -3.6676  -3.5552  -3.2120
    -3.1061  -3.0018  -2.7886  -2.7348  -2.4345  -2.2699  -2.2319  -2.1500
    -2.0689  -2.0108  -1.9430  -1.8354  -1.7202  -1.5946  -1.3236  -1.2075
    -1.0493  -0.3481   1.4730   2.4608   4.0332   5.1017   5.6228   6.1307
     6.5789   6.7404   7.0372   7.9877   8.3129   8.4295   8.9552   9.4824
    10.5303  10.9044  11.1318  12.1740  12.3620  12.5952  13.8242  14.0944
    14.4832  14.9127  15.6229  15.9031  16.1973  16.5117  16.6187  17.0431

          k =-0.0864 0.1497 0.0000 (  5031 PWs)   bands (ev):

   -90.2921 -90.0082 -89.9583 -89.9415 -53.7982 -53.7747 -53.7562 -53.5205
   -53.4923 -53.4559 -53.4348 -53.4211 -53.4153 -53.4052 -53.3799 -53.3342
   -15.6254  -6.7616  -5.1715  -4.0754  -3.8662  -3.5785  -3.5204  -3.3614
    -3.2179  -3.0571  -2.7657  -2.6645  -2.4982  -2.3624  -2.2715  -2.2245
    -2.1371  -1.9922  -1.9053  -1.7151  -1.6382  -1.3185  -1.2532  -0.9736
    -0.6067   1.8262   2.1698   3.7532   4.9223   5.7423   6.5739   6.7833
     7.7538   8.1108   8.4821   8.7013   9.1120   9.3334   9.5944  10.5840
    10.7054  11.0913  11.1911  11.6211  12.0723  12.3315  12.4493  13.2625
    13.4788  13.7377  14.0261  14.3958  14.7452  15.1636  15.3025  15.4329

          k =-0.0864-0.1497 0.0000 (  5038 PWs)   bands (ev):

   -90.2892 -90.0053 -89.9553 -89.9390 -53.8298 -53.7773 -53.7504 -53.5311
   -53.4988 -53.4725 -53.4602 -53.4537 -53.4323 -53.4096 -53.3711 -53.3380
   -15.1659  -7.2940  -5.3184  -3.9886  -3.5959  -3.5136  -3.3862  -3.3139
    -3.2878  -3.1415  -2.7728  -2.7292  -2.5656  -2.5107  -2.3713  -2.2995
    -2.2035  -1.9783  -1.6491  -1.4992  -1.2782  -1.0750  -0.9011  -0.6207
     1.9352   2.1358   3.9544   4.5041   5.7778   7.5671   8.0578   8.3373
     8.3591   8.5102   8.8362   9.2016   9.4612   9.6219   9.7261   9.9608
    10.6899  10.8909  11.0531  11.4738  11.8239  12.0085  12.3841  12.4688
    12.9512  13.4543  13.6413  13.6668  14.1105  14.3970  14.6709  14.7290

     the Fermi energy is     2.0923 ev

!    total energy              =   -1205.82281551 Ry
     Harris-Foulkes estimate   =   -1205.82280561 Ry
     estimated scf accuracy    <       0.00000055 Ry

     The total energy is the sum of the following terms:

     one-electron contribution =   -6024.18945638 Ry
     hartree contribution      =    3010.34339963 Ry
     xc contribution           =    -123.32773524 Ry
     ewald contribution        =    1931.35910492 Ry
     electric field correction =       0.00046479 Ry
     smearing contrib. (-TS)   =      -0.00859323 Ry

     convergence has been achieved in  14 iterations

     Forces acting on atoms (Ry/au):


     negative rho (up, down):  2.218E-03 0.000E+00
     atom    1 type  1   force =    -0.00206607    0.00194219   -0.01375748
     atom    2 type  1   force =     0.00259607   -0.00150270   -0.01556468
     atom    3 type  1   force =     0.00482564   -0.00633714    0.02051052
     atom    4 type  1   force =    -0.01331005    0.01723914   -0.10884233
     atom    5 type  2   force =    -0.06283902    0.04129424    0.01284462
     atom    6 type  3   force =     0.00228594    0.02814693    0.07445883
     atom    7 type  3   force =    -0.00270343   -0.05338669    0.02177017
     atom    8 type  3   force =     0.07121092   -0.02739597    0.00858034

     Total force =     0.186120     Total SCF correction =     0.006926
 !ASE
     Check: negative starting charge=   -0.002381
     NEW-OLD atomic charge density approx. for the potential
     Check: negative starting charge=   -0.002334

     negative rho (up, down):  2.204E-03 0.000E+00
 
     Adding external electric field

     Computed dipole along edir(3) : 
        Dipole                0.2632 Ry au,          0.6690 Debye
        Dipole field          0.0018 Ry au
 
        Potential amp.       -0.1247 Ry
        Total length         35.2972 bohr
 

     total cpu time spent up to now is       27.9 secs

     per-process dynamical memory:    31.3 Mb

     Self-consistent Calculation

     iteration #  1     ecut=    29.40 Ry     beta=0.10
     Davidson diagonalization with overlap
     ethr =  2.98E-09,  avg # of iterations =  5.7

     negative rho (up, down):  2.184E-03 0.000E+00
 
     Adding external electric field

     Computed dipole along edir(3) : 
        Dipole                0.2893 Ry au,          0.7353 Debye
        Dipole field          0.0019 Ry au
 
        Potential amp.       -0.1370 Ry
        Total length         35.2972 bohr
 

     total cpu time spent up to now is       31.2 secs

     total energy              =   -1205.82183563 Ry
     Harris-Foulkes estimate   =   -1205.82956609 Ry
     estimated scf accuracy    <       0.05396229 Ry

     iteration #  2     ecut=    29.40 Ry     beta=0.10
     Davidson diagonalization with overlap
     ethr =  6.42E-05,  avg # of iterations =  1.2

     negative rho (up, down):  2.169E-03 0.000E+00
 
     Adding external electric field

     Computed dipole along edir(3) : 
        Dipole                0.2291 Ry au,          0.5822 Debye
        Dipole field          0.0015 Ry au
 
        Potential amp.       -0.1085 Ry
        Total length         35.2972 bohr
 

     total cpu time spent up to now is       32.6 secs

     total energy              =   -1205.82020241 Ry
     Harris-Foulkes estimate   =   -1205.82402331 Ry
     estimated scf accuracy    <       0.02603329 Ry

     iteration #  3     ecut=    29.40 Ry     beta=0.10
     Davidson diagonalization with overlap
     ethr =  3.10E-05,  avg # of iterations =  2.8

     negative rho (up, down):  2.176E-03 0.000E+00
 
     Adding external electric field

     Computed dipole along edir(3) : 
        Dipole                0.2090 Ry au,          0.5313 Debye
        Dipole field          0.0014 Ry au
 
        Potential amp.       -0.0990 Ry
        Total length         35.2972 bohr
 

     total cpu time spent up to now is       34.1 secs

     total energy              =   -1205.81754239 Ry
     Harris-Foulkes estimate   =   -1205.82117828 Ry
     estimated scf accuracy    <       0.01352378 Ry

     iteration #  4     ecut=    29.40 Ry     beta=0.10
     Davidson diagonalization with overlap
     ethr =  1.61E-05,  avg # of iterations =  3.3

     negative rho (up, down):  2.253E-03 0.000E+00
 
     Adding external electric field

     Computed dipole along edir(3) : 
        Dipole                0.2144 Ry au,          0.5448 Debye
        Dipole field          0.0014 Ry au
 
        Potential amp.       -0.1015 Ry
        Total length         35.2972 bohr
 

     total cpu time spent up to now is       35.8 secs

     total energy              =   -1205.81853326 Ry
     Harris-Foulkes estimate   =   -1205.81886145 Ry
     estimated scf accuracy    <       0.00257860 Ry

     iteration #  5     ecut=    29.40 Ry     beta=0.10
     Davidson diagonalization with overlap
     ethr =  3.07E-06,  avg # of iterations =  2.3

     negative rho (up, down):  2.388E-03 0.000E+00
 
     Adding external electric field

     Computed dipole along edir(3) : 
        Dipole                0.2278 Ry au,          0.5791 Debye
        Dipole field          0.0015 Ry au
 
        Potential amp.       -0.1079 Ry
        Total length         35.2972 bohr
 

     total cpu time spent up to now is       37.3 secs

     total energy              =   -1205.81854068 Ry
     Harris-Foulkes estimate   =   -1205.81859423 Ry
     estimated scf accuracy    <       0.00080545 Ry

     iteration #  6     ecut=    29.40 Ry     beta=0.10
     Davidson diagonalization with overlap
     ethr =  9.59E-07,  avg # of iterations =  4.0

     negative rho (up, down):  2.359E-03 0.000E+00
 
     Adding external electric field

     Computed dipole along edir(3) : 
        Dipole                0.2328 Ry au,          0.5916 Debye
        Dipole field          0.0016 Ry au
 
        Potential amp.       -0.1103 Ry
        Total length         35.2972 bohr
 

     total cpu time spent up to now is       39.2 secs

     total energy              =   -1205.81859776 Ry
     Harris-Foulkes estimate   =   -1205.81859777 Ry
     estimated scf accuracy    <       0.00014415 Ry

     iteration #  7     ecut=    29.40 Ry     beta=0.10
     Davidson diagonalization with overlap
     ethr =  1.72E-07,  avg # of iterations =  1.0

     negative rho (up, down):  2.361E-03 0.000E+00
 
     Adding external electric field

     Computed dipole along edir(3) : 
        Dipole                0.2401 Ry au,          0.6103 Debye
        Dipole field          0.0016 Ry au
 
        Potential amp.       -0.1137 Ry
        Total length         35.2972 bohr
 

     total cpu time spent up to now is       40.5 secs

     total energy              =   -1205.81860410 Ry
     Harris-Foulkes estimate   =   -1205.81858497 Ry
     estimated scf accuracy    <       0.00005509 Ry

     iteration #  8     ecut=    29.40 Ry     beta=0.10
     Davidson diagonalization with overlap
     ethr =  6.56E-08,  avg # of iterations =  3.2

     negative rho (up, down):  2.331E-03 0.000E+00
 
     Adding external electric field

     Computed dipole along edir(3) : 
        Dipole                0.2399 Ry au,          0.6097 Debye
        Dipole field          0.0016 Ry au
 
        Potential amp.       -0.1136 Ry
        Total length         35.2972 bohr
 

     total cpu time spent up to now is       42.2 secs

     total energy              =   -1205.81860974 Ry
     Harris-Foulkes estimate   =   -1205.81861018 Ry
     estimated scf accuracy    <       0.00000746 Ry

     iteration #  9     ecut=    29.40 Ry     beta=0.10
     Davidson diagonalization with overlap
     ethr =  8.89E-09,  avg # of iterations =  2.0

     negative rho (up, down):  2.306E-03 0.000E+00
 
     Adding external electric field

     Computed dipole along edir(3) : 
        Dipole                0.2405 Ry au,          0.6113 Debye
        Dipole field          0.0016 Ry au
 
        Potential amp.       -0.1139 Ry
        Total length         35.2972 bohr
 

     total cpu time spent up to now is       43.6 secs

     total energy              =   -1205.81861211 Ry
     Harris-Foulkes estimate   =   -1205.81860832 Ry
     estimated scf accuracy    <       0.00000146 Ry

     iteration # 10     ecut=    29.40 Ry     beta=0.10
     Davidson diagonalization with overlap
     ethr =  1.74E-09,  avg # of iterations =  2.0

     negative rho (up, down):  2.180E-03 0.000E+00
 
     Adding external electric field

     Computed dipole along edir(3) : 
        Dipole                0.2403 Ry au,          0.6108 Debye
        Dipole field          0.0016 Ry au
 
        Potential amp.       -0.1138 Ry
        Total length         35.2972 bohr
 

     total cpu time spent up to now is       45.1 secs

     End of self-consistent calculation

          k = 0.0000 0.0000 0.0000 (  5071 PWs)   bands (ev):

   -90.3406 -90.0902 -90.0846 -90.0350 -53.8364 -53.8112 -53.7850 -53.6231
   -53.5718 -53.5355 -53.5201 -53.5010 -53.4942 -53.4802 -53.4712 -53.4269
   -14.8481  -6.0749  -5.0003  -4.6882  -4.3856  -4.2758  -3.9910  -3.4394
    -2.9136  -2.8884  -2.8612  -2.7511  -2.7230  -2.6777  -2.5456  -1.9640
    -1.8698  -1.6538  -1.6243  -1.4258  -1.3719  -1.3470  -1.1451  -0.9935
    -0.0356   0.5888   1.8693   2.6605   3.3973   4.2590   5.2603   5.6100
     6.5353   6.6393   7.1380   7.6890   8.0707   9.0824   9.3598   9.6162
    10.1490  10.9478  11.0948  11.2798  11.5286  12.3777  12.5906  12.7996
    13.1798  13.7985  13.8925  14.3087  14.9393  15.1025  15.7657  16.2009

          k = 0.0000 0.0998 0.0000 (  5031 PWs)   bands (ev):

   -90.3377 -90.0869 -90.0818 -90.0326 -53.8397 -53.8231 -53.7947 -53.6037
   -53.5787 -53.5731 -53.5419 -53.5261 -53.5086 -53.4992 -53.4764 -53.4260
   -14.3681  -5.8909  -4.8666  -4.0067  -3.9579  -3.6839  -3.5764  -3.3271
    -3.2625  -3.1500  -2.8499  -2.7299  -2.5911  -2.4017  -2.3747  -2.2867
    -2.1609  -2.0974  -1.9033  -1.7937  -1.6392  -1.4340  -1.3000  -1.0092
    -0.8802   1.5922   2.0923   3.7232   4.8014   5.7241   6.5664   6.7763
     7.7043   8.1213   8.4068   8.6286   9.0782   9.2124   9.6062  10.0902
    10.6626  10.7340  11.0832  11.2240  11.7644  12.1577  12.3647  12.8202
    13.2615  13.6061  13.9278  14.2678  14.6714  15.0257  15.2709  15.4446

          k = 0.0000-0.1996 0.0000 (  5048 PWs)   bands (ev):

   -90.3348 -90.0838 -90.0790 -90.0300 -53.8803 -53.8228 -53.7922 -53.6239
   -53.6097 -53.5780 -53.5762 -53.5302 -53.5109 -53.5012 -53.4734 -53.4274
   -13.7702  -6.5480  -5.0468  -4.3847  -4.3203  -4.2318  -4.0033  -3.8564
    -3.6910  -3.2178  -2.8587  -2.6926  -2.4397  -2.1288  -1.7858  -1.5581
    -1.4859  -1.4602  -1.2219  -1.0905  -1.0229  -0.9950  -0.9576  -0.7839
     2.4025   2.5329   3.2613   3.3944   5.2290   5.6791   6.4806   6.7070
     7.5906   8.3835   8.4573   9.3230   9.8403  10.1744  10.5491  10.8910
    10.9586  11.0211  11.0981  11.2084  11.4770  12.0751  12.3090  12.5113
    12.5354  12.6878  12.8982  13.0355  13.5001  13.8856  14.1538  14.1848

          k =-0.0864 0.0499 0.0000 (  5024 PWs)   bands (ev):

   -90.3405 -90.0895 -90.0848 -90.0355 -53.8262 -53.8070 -53.7831 -53.5917
   -53.5817 -53.5360 -53.5305 -53.5159 -53.5023 -53.4807 -53.4738 -53.4261
   -14.8348  -5.9302  -5.0355  -4.0863  -3.9095  -3.7517  -3.6366  -3.2928
    -3.1624  -2.9759  -2.8824  -2.6171  -2.5090  -2.3370  -2.3109  -2.2216
    -2.1589  -2.0949  -2.0325  -1.8608  -1.7973  -1.5648  -1.3229  -1.3108
    -1.1330   0.0272   1.3958   2.1829   4.0843   4.8468   5.6473   6.0591
     6.6324   6.7244   6.9522   7.5046   8.0459   8.3025   8.7076   8.9695
    10.5531  10.8643  11.0937  12.0608  12.2256  12.3972  13.7784  14.0740
    14.4334  14.7726  15.3606  15.5370  16.0887  16.3889  16.5292  16.9392

          k =-0.0864 0.1497 0.0000 (  5031 PWs)   bands (ev):

   -90.3377 -90.0869 -90.0818 -90.0326 -53.8388 -53.8257 -53.7929 -53.6032
   -53.5787 -53.5729 -53.5425 -53.5278 -53.5094 -53.4970 -53.4764 -53.4260
   -14.3682  -5.9028  -4.8559  -4.0485  -3.8434  -3.6181  -3.5888  -3.4191
    -3.2955  -3.1267  -2.8494  -2.7365  -2.5573  -2.4343  -2.3557  -2.2724
    -2.2069  -2.0783  -1.9727  -1.8031  -1.7204  -1.3994  -1.3357  -1.0450
    -0.7145   1.6941   2.0364   3.8061   4.7579   5.6936   6.5646   6.7121
     7.5309   8.1039   8.3888   8.6042   9.0080   9.2347   9.5701  10.2299
    10.6378  10.9260  11.0452  11.2982  11.8386  12.1747  12.2358  12.9268
    13.4040  13.7000  13.9481  14.3174  14.6829  15.0360  15.3086  15.3848

          k =-0.0864-0.1497 0.0000 (  5038 PWs)   bands (ev):

   -90.3348 -90.0839 -90.0790 -90.0300 -53.8769 -53.8175 -53.7898 -53.6117
   -53.5856 -53.5834 -53.5767 -53.5618 -53.5240 -53.5008 -53.4725 -53.4270
   -13.7783  -6.5563  -4.9752  -3.8862  -3.6693  -3.5960  -3.4582  -3.4094
    -3.3842  -3.2016  -2.8570  -2.7859  -2.6489  -2.6001  -2.4458  -2.3797
    -2.2891  -2.0425  -1.7348  -1.5756  -1.3640  -1.1720  -0.8926  -0.7731
     1.8470   2.0281   3.9215   4.4199   5.7376   7.3263   7.7746   8.1737
     8.2458   8.4130   8.7518   9.1621   9.4031   9.5824   9.6117   9.7305
    10.5748  10.8378  11.0086  11.3080  11.6119  11.9000  12.1809  12.3439
    12.8020  13.3494  13.5447  13.6370  14.0525  14.3720  14.5031  14.6869

     the Fermi energy is     1.9726 ev

!    total energy              =   -1205.81861971 Ry
     Harris-Foulkes estimate   =   -1205.81861283 Ry
     estimated scf accuracy    <       0.00000049 Ry

     The total energy is the sum of the following terms:

     one-electron contribution =   -5994.34661257 Ry
     hartree contribution      =    2995.29948601 Ry
     xc contribution           =    -123.11100772 Ry
     ewald contribution        =    1916.34878427 Ry
     electric field correction =       0.00038750 Ry
     smearing contrib. (-TS)   =      -0.00965720 Ry

     convergence has been achieved in  10 iterations

     Forces acting on atoms (Ry/au):


     negative rho (up, down):  2.180E-03 0.000E+00
     atom    1 type  1   force =    -0.00150326    0.00151413   -0.01589932
     atom    2 type  1   force =     0.00188087   -0.00113600   -0.01889356
     atom    3 type  1   force =     0.00442911   -0.00529201    0.02127844
     atom    4 type  1   force =    -0.00821048    0.01040399   -0.07535138
     atom    5 type  2   force =    -0.10702957   -0.06162100    0.11436078
     atom    6 type  3   force =     0.00186274   -0.02025187   -0.08431078
     atom    7 type  3   force =     0.02943737    0.10399228    0.03302213
     atom    8 type  3   force =     0.07913322   -0.02760952    0.02579370

     Total force =     0.251569     Total SCF correction =     0.004153
 !ASE
     Check: negative starting charge=   -0.002334
     NEW-OLD atomic charge density approx. for the potential
     Check: negative starting charge=   -0.002363

     negative rho (up, down):  2.250E-03 0.000E+00
 
     Adding external electric field

     Computed dipole along edir(3) : 
        Dipole                0.2403 Ry au,          0.6108 Debye
        Dipole field          0.0016 Ry au
 
        Potential amp.       -0.1138 Ry
        Total length         35.2972 bohr
 

     total cpu time spent up to now is       46.5 secs

     per-process dynamical memory:    31.3 Mb

     Self-consistent Calculation

     iteration #  1     ecut=    29.40 Ry     beta=0.10
     Davidson diagonalization with overlap
     ethr =  1.74E-09,  avg # of iterations =  6.0

     negative rho (up, down):  2.248E-03 0.000E+00
 
     Adding external electric field

     Computed dipole along edir(3) : 
        Dipole                0.2260 Ry au,          0.5743 Debye
        Dipole field          0.0015 Ry au
 
        Potential amp.       -0.1070 Ry
        Total length         35.2972 bohr
 

     total cpu time spent up to now is       49.8 secs

     total energy              =   -1205.83379846 Ry
     Harris-Foulkes estimate   =   -1205.83577139 Ry
     estimated scf accuracy    <       0.01388487 Ry

     iteration #  2     ecut=    29.40 Ry     beta=0.10
     Davidson diagonalization with overlap
     ethr =  1.65E-05,  avg # of iterations =  1.3

     negative rho (up, down):  2.247E-03 0.000E+00
 
     Adding external electric field

     Computed dipole along edir(3) : 
        Dipole                0.2552 Ry au,          0.6487 Debye
        Dipole field          0.0017 Ry au
 
        Potential amp.       -0.1209 Ry
        Total length         35.2972 bohr
 

     total cpu time spent up to now is       51.1 secs

     total energy              =   -1205.83335005 Ry
     Harris-Foulkes estimate   =   -1205.83417187 Ry
     estimated scf accuracy    <       0.00697796 Ry

     iteration #  3     ecut=    29.40 Ry     beta=0.10
     Davidson diagonalization with overlap
     ethr =  8.31E-06,  avg # of iterations =  3.0

     negative rho (up, down):  2.251E-03 0.000E+00
 
     Adding external electric field

     Computed dipole along edir(3) : 
        Dipole                0.2677 Ry au,          0.6804 Debye
        Dipole field          0.0018 Ry au
 
        Potential amp.       -0.1268 Ry
        Total length         35.2972 bohr
 

     total cpu time spent up to now is       52.8 secs

     total energy              =   -1205.83257772 Ry
     Harris-Foulkes estimate   =   -1205.83352371 Ry
     estimated scf accuracy    <       0.00381213 Ry

     iteration #  4     ecut=    29.40 Ry     beta=0.10
     Davidson diagonalization with overlap
     ethr =  4.54E-06,  avg # of iterations =  3.5

     negative rho (up, down):  2.256E-03 0.000E+00
 
     Adding external electric field

     Computed dipole along edir(3) : 
        Dipole                0.2685 Ry au,          0.6825 Debye
        Dipole field          0.0018 Ry au
 
        Potential amp.       -0.1272 Ry
        Total length         35.2972 bohr
 

     total cpu time spent up to now is       54.5 secs

     total energy              =   -1205.83287584 Ry
     Harris-Foulkes estimate   =   -1205.83295780 Ry
     estimated scf accuracy    <       0.00079233 Ry

     iteration #  5     ecut=    29.40 Ry     beta=0.10
     Davidson diagonalization with overlap
     ethr =  9.43E-07,  avg # of iterations =  1.7

     negative rho (up, down):  2.273E-03 0.000E+00
 
     Adding external electric field

     Computed dipole along edir(3) : 
        Dipole                0.2629 Ry au,          0.6683 Debye
        Dipole field          0.0018 Ry au
 
        Potential amp.       -0.1245 Ry
        Total length         35.2972 bohr
 

     total cpu time spent up to now is       55.9 secs

     total energy              =   -1205.83289586 Ry
     Harris-Foulkes estimate   =   -1205.83292827 Ry
     estimated scf accuracy    <       0.00022775 Ry

     iteration #  6     ecut=    29.40 Ry     beta=0.10
     Davidson diagonalization with overlap
     ethr =  2.71E-07,  avg # of iterations =  2.0

     negative rho (up, down):  2.262E-03 0.000E+00
 
     Adding external electric field

     Computed dipole along edir(3) : 
        Dipole                0.2607 Ry au,          0.6625 Debye
        Dipole field          0.0017 Ry au
 
        Potential amp.       -0.1235 Ry
        Total length         35.2972 bohr
 

     total cpu time spent up to now is       57.4 secs

     total energy              =   -1205.83290985 Ry
     Harris-Foulkes estimate   =   -1205.83291839 Ry
     estimated scf accuracy    <       0.00002933 Ry

     iteration #  7     ecut=    29.40 Ry     beta=0.10
     Davidson diagonalization with overlap
     ethr =  3.49E-08,  avg # of iterations =  1.3

     negative rho (up, down):  2.256E-03 0.000E+00
 
     Adding external electric field

     Computed dipole along edir(3) : 
        Dipole                0.2567 Ry au,          0.6523 Debye
        Dipole field          0.0017 Ry au
 
        Potential amp.       -0.1216 Ry
        Total length         35.2972 bohr
 

     total cpu time spent up to now is       58.7 secs

     total energy              =   -1205.83290975 Ry
     Harris-Foulkes estimate   =   -1205.83292517 Ry
     estimated scf accuracy    <       0.00001330 Ry

     iteration #  8     ecut=    29.40 Ry     beta=0.10
     Davidson diagonalization with overlap
     ethr =  1.58E-08,  avg # of iterations =  2.0

     negative rho (up, down):  2.247E-03 0.000E+00
 
     Adding external electric field

     Computed dipole along edir(3) : 
        Dipole                0.2565 Ry au,          0.6519 Debye
        Dipole field          0.0017 Ry au
 
        Potential amp.       -0.1215 Ry
        Total length         35.2972 bohr
 

     total cpu time spent up to now is       60.2 secs

     total energy              =   -1205.83291156 Ry
     Harris-Foulkes estimate   =   -1205.83291191 Ry
     estimated scf accuracy    <       0.00000201 Ry

     iteration #  9     ecut=    29.40 Ry     beta=0.10
     Davidson diagonalization with overlap
     ethr =  2.39E-09,  avg # of iterations =  2.0

     negative rho (up, down):  2.201E-03 0.000E+00
 
     Adding external electric field

     Computed dipole along edir(3) : 
        Dipole                0.2573 Ry au,          0.6540 Debye
        Dipole field          0.0017 Ry au
 
        Potential amp.       -0.1219 Ry
        Total length         35.2972 bohr
 

     total cpu time spent up to now is       61.7 secs

     End of self-consistent calculation

          k = 0.0000 0.0000 0.0000 (  5071 PWs)   bands (ev):

   -90.3076 -90.0381 -90.0051 -89.9762 -53.7988 -53.7859 -53.7524 -53.5684
   -53.4938 -53.4815 -53.4547 -53.4367 -53.4237 -53.4219 -53.4085 -53.3671
   -15.4893  -6.4153  -5.1588  -4.6792  -4.3346  -4.2218  -3.9521  -3.4401
    -2.9513  -2.8524  -2.8241  -2.6994  -2.6734  -2.6174  -2.5090  -1.9469
    -1.8137  -1.6168  -1.6012  -1.3917  -1.3285  -1.2841  -1.0832  -0.9364
    -0.3435   0.6964   1.8879   2.7315   3.4814   4.2626   5.2486   5.6962
     6.6023   6.6522   7.3766   8.1178   8.4097   9.2403   9.3782   9.6394
    10.2116  10.9596  11.0878  11.3238  11.5536  12.3830  12.6111  12.8062
    13.2062  13.8297  13.9471  14.4189  15.0139  15.0965  15.8068  16.3158

          k = 0.0000 0.0998 0.0000 (  5031 PWs)   bands (ev):

   -90.3046 -90.0349 -90.0022 -89.9738 -53.8080 -53.7845 -53.7707 -53.5492
   -53.5201 -53.4996 -53.4652 -53.4605 -53.4491 -53.4385 -53.4160 -53.3667
   -15.0571  -6.3759  -5.0468  -4.0356  -3.9374  -3.6334  -3.5257  -3.2728
    -3.2203  -3.1188  -2.7919  -2.6808  -2.5424  -2.3493  -2.3300  -2.2368
    -2.1181  -2.0353  -1.8650  -1.7367  -1.6054  -1.3818  -1.2497  -0.9732
    -0.8119   1.6733   2.1807   3.7055   4.9104   5.7571   6.5782   6.8095
     7.8246   8.1350   8.4685   8.6848   9.1342   9.2583   9.6059  10.5757
    10.6977  10.7542  11.1462  11.3157  11.9458  12.2597  12.4123  13.0229
    13.3111  13.6198  13.9735  14.3216  14.6997  15.0909  15.2621  15.4508

          k = 0.0000-0.1996 0.0000 (  5048 PWs)   bands (ev):

   -90.3017 -90.0319 -89.9992 -89.9713 -53.8461 -53.7857 -53.7685 -53.5702
   -53.5541 -53.4986 -53.4971 -53.4721 -53.4523 -53.4382 -53.4104 -53.3697
   -14.5342  -6.9638  -5.2200  -4.3778  -4.2737  -4.1961  -3.9492  -3.8118
    -3.6628  -3.2037  -2.8211  -2.6415  -2.3800  -2.1042  -1.7292  -1.5006
    -1.4290  -1.4051  -1.1721  -1.0228  -0.9946  -0.9360  -0.9116  -0.6789
     2.4635   2.5960   3.3233   3.4566   5.2734   5.7646   6.5308   6.7722
     7.8923   8.4833   8.6165   9.3419   9.8279  10.1944  10.6089  10.8919
    10.9517  11.0260  11.1063  11.2348  11.5080  12.2155  12.3382  12.4943
    12.5661  12.7356  12.9816  13.1140  13.5430  13.9262  14.2118  14.3726

          k =-0.0864 0.0499 0.0000 (  5024 PWs)   bands (ev):

   -90.3074 -90.0376 -90.0052 -89.9767 -53.7959 -53.7764 -53.7507 -53.5335
   -53.5073 -53.4770 -53.4751 -53.4508 -53.4257 -53.4240 -53.4092 -53.3660
   -15.4780  -6.3253  -5.2094  -4.0502  -3.8483  -3.6955  -3.5808  -3.2370
    -3.1119  -2.9711  -2.8205  -2.6784  -2.4597  -2.2906  -2.2579  -2.1732
    -2.1003  -2.0380  -1.9709  -1.8323  -1.7452  -1.5798  -1.3228  -1.2436
    -1.0797  -0.2300   1.4479   2.3529   4.0702   5.0104   5.6244   6.1110
     6.5946   6.7303   7.0133   7.9593   8.1907   8.3441   8.8145   9.1405
    10.5380  10.8868  11.1174  12.1320  12.3146  12.5031  13.8047  14.0873
    14.4631  14.8602  15.5704  15.6957  16.1496  16.4567  16.5854  16.9940

          k =-0.0864 0.1497 0.0000 (  5031 PWs)   bands (ev):

   -90.3046 -90.0349 -90.0022 -89.9738 -53.8076 -53.7875 -53.7679 -53.5487
   -53.5198 -53.4995 -53.4686 -53.4600 -53.4489 -53.4367 -53.4160 -53.3668
   -15.0572  -6.3804  -5.0340  -4.0426  -3.8549  -3.5913  -3.5474  -3.3806
    -3.2443  -3.0811  -2.7940  -2.6882  -2.5163  -2.3859  -2.2996  -2.2392
    -2.1612  -2.0221  -1.9298  -1.7455  -1.6658  -1.3455  -1.2819  -0.9969
    -0.6471   1.7783   2.1192   3.7851   4.8644   5.7225   6.5762   6.7508
     7.6688   8.1092   8.4521   8.6667   9.0744   9.2945   9.5849  10.5061
    10.6774  11.0613  11.1206  11.4535  11.9833  12.2672  12.3299  13.0940
    13.4398  13.7193  13.9817  14.3566  14.7213  15.1032  15.3002  15.4058

          k =-0.0864-0.1497 0.0000 (  5038 PWs)   bands (ev):

   -90.3017 -90.0320 -89.9993 -89.9713 -53.8434 -53.7834 -53.7641 -53.5585
   -53.5261 -53.5074 -53.5045 -53.4953 -53.4647 -53.4386 -53.4091 -53.3693
   -14.5411  -6.9702  -5.1712  -3.9365  -3.6203  -3.5417  -3.4096  -3.3477
    -3.3213  -3.1627  -2.8011  -2.7457  -2.5947  -2.5418  -2.3961  -2.3265
    -2.2325  -1.9998  -1.6779  -1.5250  -1.3072  -1.1084  -0.8981  -0.6812
     1.9051   2.0973   3.9527   4.4757   5.7668   7.5359   7.9094   8.2844
     8.3093   8.4763   8.8037   9.1915   9.4329   9.6101   9.6842   9.8618
    10.6478  10.8694  11.0355  11.4073  11.7314  11.9810  12.3014  12.4159
    12.8884  13.4060  13.5996  13.6519  14.0843  14.3848  14.6206  14.7106

     the Fermi energy is     2.0489 ev

!    total energy              =   -1205.83291493 Ry
     Harris-Foulkes estimate   =   -1205.83290887 Ry
     estimated scf accuracy    <       0.00000039 Ry

     The total energy is the sum of the following terms:

     one-electron contribution =   -6011.74628946 Ry
     hartree contribution      =    3004.10532259 Ry
     xc contribution           =    -123.23101625 Ry
     ewald contribution        =    1925.04764579 Ry
     electric field correction =       0.00044424 Ry
     smearing contrib. (-TS)   =      -0.00902184 Ry

     convergence has been achieved in   9 iterations

     Forces acting on atoms (Ry/au):


     negative rho (up, down):  2.201E-03 0.000E+00
     atom    1 type  1   force =    -0.00158764    0.00157825   -0.01511705
     atom    2 type  1   force =     0.00202754   -0.00117359   -0.01750339
     atom    3 type  1   force =     0.00462686   -0.00591256    0.02133997
     atom    4 type  1   force =    -0.01084286    0.01440353   -0.09367199
     atom    5 type  2   force =    -0.09193215   -0.02454502    0.06769201
     atom    6 type  3   force =     0.00313754    0.00366637   -0.00769050
     atom    7 type  3   force =     0.01988004    0.03974976    0.02913328
     atom    8 type  3   force =     0.07469068   -0.02776673    0.01581767

     Total force =     0.182481     Total SCF correction =     0.002898
 !ASE
     Check: negative starting charge=   -0.002363
     NEW-OLD atomic charge density approx. for the potential
     Check: negative starting charge=   -0.002313

     negative rho (up, down):  2.184E-03 0.000E+00
 
     Adding external electric field

     Computed dipole along edir(3) : 
        Dipole                0.2573 Ry au,          0.6540 Debye
        Dipole field          0.0017 Ry au
 
        Potential amp.       -0.1219 Ry
        Total length         35.2972 bohr
 

     total cpu time spent up to now is       63.1 secs

     per-process dynamical memory:    31.3 Mb

     Self-consistent Calculation

     iteration #  1     ecut=    29.40 Ry     beta=0.10
     Davidson diagonalization with overlap
     ethr =  2.39E-09,  avg # of iterations =  7.0

     negative rho (up, down):  2.175E-03 0.000E+00
 
     Adding external electric field

     Computed dipole along edir(3) : 
        Dipole                0.1772 Ry au,          0.4505 Debye
        Dipole field          0.0012 Ry au
 
        Potential amp.       -0.0840 Ry
        Total length         35.2972 bohr
 

     total cpu time spent up to now is       66.7 secs

     total energy              =   -1205.85483992 Ry
     Harris-Foulkes estimate   =   -1205.85967796 Ry
     estimated scf accuracy    <       0.03388332 Ry

     iteration #  2     ecut=    29.40 Ry     beta=0.10
     Davidson diagonalization with overlap
     ethr =  4.03E-05,  avg # of iterations =  2.8

     negative rho (up, down):  2.174E-03 0.000E+00
 
     Adding external electric field

     Computed dipole along edir(3) : 
        Dipole                0.2069 Ry au,          0.5259 Debye
        Dipole field          0.0014 Ry au
 
        Potential amp.       -0.0980 Ry
        Total length         35.2972 bohr
 

     total cpu time spent up to now is       68.4 secs

     total energy              =   -1205.85541579 Ry
     Harris-Foulkes estimate   =   -1205.85681590 Ry
     estimated scf accuracy    <       0.01753487 Ry

     iteration #  3     ecut=    29.40 Ry     beta=0.10
     Davidson diagonalization with overlap
     ethr =  2.09E-05,  avg # of iterations =  2.0

     negative rho (up, down):  2.218E-03 0.000E+00
 
     Adding external electric field

     Computed dipole along edir(3) : 
        Dipole                0.1853 Ry au,          0.4710 Debye
        Dipole field          0.0012 Ry au
 
        Potential amp.       -0.0878 Ry
        Total length         35.2972 bohr
 

     total cpu time spent up to now is       69.9 secs

     total energy              =   -1205.85404697 Ry
     Harris-Foulkes estimate   =   -1205.85594791 Ry
     estimated scf accuracy    <       0.00972558 Ry

     iteration #  4     ecut=    29.40 Ry     beta=0.10
     Davidson diagonalization with overlap
     ethr =  1.16E-05,  avg # of iterations =  3.2

     negative rho (up, down):  2.430E-03 0.000E+00
 
     Adding external electric field

     Computed dipole along edir(3) : 
        Dipole                0.1905 Ry au,          0.4843 Debye
        Dipole field          0.0013 Ry au
 
        Potential amp.       -0.0903 Ry
        Total length         35.2972 bohr
 

     total cpu time spent up to now is       71.6 secs

     total energy              =   -1205.85402107 Ry
     Harris-Foulkes estimate   =   -1205.85453377 Ry
     estimated scf accuracy    <       0.00335236 Ry

     iteration #  5     ecut=    29.40 Ry     beta=0.10
     Davidson diagonalization with overlap
     ethr =  3.99E-06,  avg # of iterations =  2.5

     negative rho (up, down):  2.541E-03 0.000E+00
 
     Adding external electric field

     Computed dipole along edir(3) : 
        Dipole                0.2037 Ry au,          0.5178 Debye
        Dipole field          0.0014 Ry au
 
        Potential amp.       -0.0965 Ry
        Total length         35.2972 bohr
 

     total cpu time spent up to now is       73.2 secs

     total energy              =   -1205.85421783 Ry
     Harris-Foulkes estimate   =   -1205.85425895 Ry
     estimated scf accuracy    <       0.00075015 Ry

     iteration #  6     ecut=    29.40 Ry     beta=0.10
     Davidson diagonalization with overlap
     ethr =  8.93E-07,  avg # of iterations =  4.0

     negative rho (up, down):  2.600E-03 0.000E+00
 
     Adding external electric field

     Computed dipole along edir(3) : 
        Dipole                0.2234 Ry au,          0.5678 Debye
        Dipole field          0.0015 Ry au
 
        Potential amp.       -0.1058 Ry
        Total length         35.2972 bohr
 

     total cpu time spent up to now is       74.9 secs

     total energy              =   -1205.85423426 Ry
     Harris-Foulkes estimate   =   -1205.85421132 Ry
     estimated scf accuracy    <       0.00035725 Ry

     iteration #  7     ecut=    29.40 Ry     beta=0.10
     Davidson diagonalization with overlap
     ethr =  4.25E-07,  avg # of iterations =  3.8

     negative rho (up, down):  2.561E-03 0.000E+00
 
     Adding external electric field

     Computed dipole along edir(3) : 
        Dipole                0.2236 Ry au,          0.5684 Debye
        Dipole field          0.0015 Ry au
 
        Potential amp.       -0.1059 Ry
        Total length         35.2972 bohr
 

     total cpu time spent up to now is       76.7 secs

     total energy              =   -1205.85425996 Ry
     Harris-Foulkes estimate   =   -1205.85426178 Ry
     estimated scf accuracy    <       0.00003832 Ry

     iteration #  8     ecut=    29.40 Ry     beta=0.10
     Davidson diagonalization with overlap
     ethr =  4.56E-08,  avg # of iterations =  2.0

     negative rho (up, down):  2.508E-03 0.000E+00
 
     Adding external electric field

     Computed dipole along edir(3) : 
        Dipole                0.2234 Ry au,          0.5677 Debye
        Dipole field          0.0015 Ry au
 
        Potential amp.       -0.1058 Ry
        Total length         35.2972 bohr
 

     total cpu time spent up to now is       78.2 secs

     total energy              =   -1205.85426702 Ry
     Harris-Foulkes estimate   =   -1205.85426439 Ry
     estimated scf accuracy    <       0.00000602 Ry

     iteration #  9     ecut=    29.40 Ry     beta=0.10
     Davidson diagonalization with overlap
     ethr =  7.16E-09,  avg # of iterations =  1.0

     negative rho (up, down):  2.462E-03 0.000E+00
 
     Adding external electric field

     Computed dipole along edir(3) : 
        Dipole                0.2231 Ry au,          0.5671 Debye
        Dipole field          0.0015 Ry au
 
        Potential amp.       -0.1057 Ry
        Total length         35.2972 bohr
 

     total cpu time spent up to now is       79.5 secs

     total energy              =   -1205.85426950 Ry
     Harris-Foulkes estimate   =   -1205.85426805 Ry
     estimated scf accuracy    <       0.00000394 Ry

     iteration # 10     ecut=    29.40 Ry     beta=0.10
     Davidson diagonalization with overlap
     ethr =  4.68E-09,  avg # of iterations =  2.0

     negative rho (up, down):  2.251E-03 0.000E+00
 
     Adding external electric field

     Computed dipole along edir(3) : 
        Dipole                0.2229 Ry au,          0.5666 Debye
        Dipole field          0.0015 Ry au
 
        Potential amp.       -0.1056 Ry
        Total length         35.2972 bohr
 

     total cpu time spent up to now is       81.0 secs

     End of self-consistent calculation

          k = 0.0000 0.0000 0.0000 (  5071 PWs)   bands (ev):

   -90.3407 -90.1442 -90.1254 -90.0979 -53.8482 -53.8039 -53.7705 -53.6675
   -53.6241 -53.5771 -53.5742 -53.5626 -53.5463 -53.5325 -53.5173 -53.4909
   -15.1042  -6.4264  -5.1473  -4.6455  -4.4186  -4.3040  -4.0594  -3.5134
    -3.0229  -2.9367  -2.9185  -2.7887  -2.7864  -2.7300  -2.5414  -1.9691
    -1.9174  -1.6856  -1.6471  -1.5263  -1.4307  -1.4036  -1.1797  -1.0417
    -0.1122   0.6063   1.8700   2.6116   3.3420   4.3848   5.2863   5.6841
     6.4982   6.6152   7.2718   8.0249   8.6638   9.2382   9.4927   9.8405
    10.2599  11.0881  11.1032  11.3470  11.6886  12.3649  12.5957  12.8616
    13.1926  13.7658  13.8326  14.4236  14.8531  15.2165  15.8427  16.1945

          k = 0.0000 0.0998 0.0000 (  5031 PWs)   bands (ev):

   -90.3377 -90.1413 -90.1217 -90.0960 -53.8413 -53.8325 -53.7718 -53.6479
   -53.6328 -53.6106 -53.6043 -53.5860 -53.5619 -53.5564 -53.5141 -53.4902
   -14.6795  -6.4720  -4.8662  -4.0072  -3.8226  -3.7088  -3.5780  -3.3888
    -3.3094  -3.0498  -2.8865  -2.7537  -2.6632  -2.4452  -2.4034  -2.3617
    -2.2231  -2.1295  -1.9095  -1.8354  -1.7045  -1.4725  -1.3628  -1.0886
    -0.6959   1.4709   2.0028   3.7640   4.7980   5.8110   6.5457   6.9461
     7.7357   8.0893   8.3832   8.6810   8.9811   9.3268   9.6292  10.4665
    10.7128  10.8085  11.0770  11.3212  11.9574  12.3109  12.4009  12.9351
    13.4506  13.6902  13.9590  14.2972  14.7752  14.9789  15.3514  15.5398

          k = 0.0000-0.1996 0.0000 (  5048 PWs)   bands (ev):

   -90.3348 -90.1384 -90.1186 -90.0935 -53.8820 -53.8332 -53.7700 -53.6637
   -53.6590 -53.6389 -53.6311 -53.5791 -53.5685 -53.5555 -53.5116 -53.4921
   -14.1672  -7.0341  -4.8685  -4.3611  -4.3080  -4.1629  -4.0253  -3.8940
    -3.7551  -3.1726  -2.8483  -2.6775  -2.4858  -2.0947  -1.8459  -1.5995
    -1.5329  -1.5127  -1.2388  -1.1366  -1.0505  -1.0401  -0.9986  -0.8282
     2.3089   2.4467   3.1984   3.3185   5.2186   5.6464   6.4209   6.6730
     7.9960   8.3779   8.5863   9.6575   9.9336  10.1829  10.4705  10.8176
    11.0335  11.0411  11.1493  11.2585  11.4343  12.0375  12.3452  12.5087
    12.5764  12.6962  13.0652  13.1387  13.4910  13.8439  14.0233  14.2787

          k =-0.0864 0.0499 0.0000 (  5024 PWs)   bands (ev):

   -90.3405 -90.1443 -90.1243 -90.0990 -53.8336 -53.8016 -53.7671 -53.6449
   -53.6204 -53.5964 -53.5711 -53.5693 -53.5646 -53.5376 -53.5172 -53.4898
   -15.0936  -6.3188  -5.0522  -4.0852  -3.9565  -3.8048  -3.7133  -3.3386
    -3.2123  -3.0265  -2.9306  -2.5484  -2.5418  -2.4081  -2.3492  -2.2643
    -2.1923  -2.1583  -2.0755  -1.8908  -1.8432  -1.6722  -1.4740  -1.3722
    -1.2302   0.0311   1.2898   2.0478   4.1242   5.0548   5.7316   6.0817
     6.6709   6.8104   7.0674   7.9954   8.2395   8.4489   8.9160   9.5901
    10.6151  10.8992  11.1266  12.0040  12.2506  12.6199  13.7701  14.0947
    14.4117  14.6860  15.4155  15.5671  16.1117  16.4410  16.4910  16.9006

          k =-0.0864 0.1497 0.0000 (  5031 PWs)   bands (ev):

   -90.3377 -90.1413 -90.1217 -90.0960 -53.8410 -53.8342 -53.7699 -53.6463
   -53.6330 -53.6117 -53.6047 -53.5883 -53.5625 -53.5540 -53.5140 -53.4902
   -14.6798  -6.4770  -4.8603  -4.0236  -3.7842  -3.6460  -3.5363  -3.4542
    -3.3212  -3.0439  -2.8937  -2.7753  -2.6105  -2.4871  -2.3967  -2.3443
    -2.2619  -2.1161  -1.9632  -1.8503  -1.7700  -1.4491  -1.3906  -1.1167
    -0.5794   1.5604   1.9397   3.7874   4.7668   5.8204   6.5579   6.9015
     7.6880   8.0897   8.3841   8.6629   8.9335   9.3451   9.6117  10.5075
    10.6699  10.9681  11.1530  11.2967  11.9279  12.1716  12.6193  12.9404
    13.4635  13.7997  13.9598  14.4091  14.7675  14.9258  15.3627  15.4741

          k =-0.0864-0.1497 0.0000 (  5038 PWs)   bands (ev):

   -90.3348 -90.1385 -90.1186 -90.0935 -53.8775 -53.8258 -53.7672 -53.6510
   -53.6463 -53.6387 -53.6264 -53.6119 -53.5851 -53.5539 -53.5110 -53.4917
   -14.1736  -7.0421  -4.7171  -3.7732  -3.6852  -3.6212  -3.4824  -3.4442
    -3.4311  -3.1286  -2.8910  -2.7930  -2.6971  -2.6392  -2.4936  -2.4256
    -2.3618  -2.0345  -1.7918  -1.6424  -1.4321  -1.2192  -0.9325  -0.7361
     1.8014   1.9405   3.8958   4.3110   5.7724   7.6107   7.8699   8.2240
     8.3269   8.4458   8.7624   9.1448   9.4408   9.5415   9.7637   9.8124
    10.5203  10.7949  10.9855  11.3451  11.5615  11.9143  12.1117  12.3372
    12.7668  13.2882  13.6567  13.8322  14.1170  14.3732  14.6008  14.7789

     the Fermi energy is     1.8919 ev

!    total energy              =   -1205.85428312 Ry
     Harris-Foulkes estimate   =   -1205.85427053 Ry
     estimated scf accuracy    <       0.00000025 Ry

     The total energy is the sum of the following terms:

     one-electron contribution =   -5957.48877692 Ry
     hartree contribution      =    2976.80899543 Ry
     xc contribution           =    -123.20315286 Ry
     ewald contribution        =    1898.03833012 Ry
     electric field correction =       0.00033340 Ry
     smearing contrib. (-TS)   =      -0.01001228 Ry

     convergence has been achieved in  10 iterations

     Forces acting on atoms (Ry/au):


     negative rho (up, down):  2.251E-03 0.000E+00
     atom    1 type  1   force =    -0.00124771    0.00118128   -0.01702918
     atom    2 type  1   force =     0.00157408   -0.00100583   -0.01887652
     atom    3 type  1   force =     0.00427081   -0.00548492    0.02054661
     atom    4 type  1   force =    -0.00135805    0.01294746   -0.03894894
     atom    5 type  2   force =    -0.07755068   -0.00364967   -0.06821711
     atom    6 type  3   force =    -0.00777868   -0.00505325    0.02673003
     atom    7 type  3   force =     0.00276770    0.04016717    0.05199896
     atom    8 type  3   force =     0.07932253   -0.03910225    0.04379614

     Total force =     0.168391     Total SCF correction =     0.002155
 !ASE
     Check: negative starting charge=   -0.002313
     NEW-OLD atomic charge density approx. for the potential
     Check: negative starting charge=   -0.002242

     negative rho (up, down):  2.195E-03 0.000E+00
 
     Adding external electric field

     Computed dipole along edir(3) : 
        Dipole                0.2229 Ry au,          0.5666 Debye
        Dipole field          0.0015 Ry au
 
        Potential amp.       -0.1056 Ry
        Total length         35.2972 bohr
 

     total cpu time spent up to now is       82.4 secs

     per-process dynamical memory:    31.3 Mb

     Self-consistent Calculation

     iteration #  1     ecut=    29.40 Ry     beta=0.10
     Davidson diagonalization with overlap
     ethr =  4.68E-09,  avg # of iterations = 10.2

     negative rho (up, down):  2.182E-03 0.000E+00
 
     Adding external electric field

     Computed dipole along edir(3) : 
        Dipole                0.1780 Ry au,          0.4524 Debye
        Dipole field          0.0012 Ry au
 
        Potential amp.       -0.0843 Ry
        Total length         35.2972 bohr
 

     total cpu time spent up to now is       86.3 secs

     total energy              =   -1205.81151895 Ry
     Harris-Foulkes estimate   =   -1205.81427995 Ry
     estimated scf accuracy    <       0.02647943 Ry

     iteration #  2     ecut=    29.40 Ry     beta=0.10
     Davidson diagonalization with overlap
     ethr =  3.15E-05,  avg # of iterations =  2.7

     negative rho (up, down):  2.174E-03 0.000E+00
 
     Adding external electric field

     Computed dipole along edir(3) : 
        Dipole                0.1999 Ry au,          0.5080 Debye
        Dipole field          0.0013 Ry au
 
        Potential amp.       -0.0947 Ry
        Total length         35.2972 bohr
 

     total cpu time spent up to now is       87.9 secs

     total energy              =   -1205.81086717 Ry
     Harris-Foulkes estimate   =   -1205.81216744 Ry
     estimated scf accuracy    <       0.01774516 Ry

     iteration #  3     ecut=    29.40 Ry     beta=0.10
     Davidson diagonalization with overlap
     ethr =  2.11E-05,  avg # of iterations =  1.2

     negative rho (up, down):  2.265E-03 0.000E+00
 
     Adding external electric field

     Computed dipole along edir(3) : 
        Dipole                0.1821 Ry au,          0.4629 Debye
        Dipole field          0.0012 Ry au
 
        Potential amp.       -0.0863 Ry
        Total length         35.2972 bohr
 

     total cpu time spent up to now is       89.2 secs

     total energy              =   -1205.80752565 Ry
     Harris-Foulkes estimate   =   -1205.81115221 Ry
     estimated scf accuracy    <       0.01280192 Ry

     iteration #  4     ecut=    29.40 Ry     beta=0.10
     Davidson diagonalization with overlap
     ethr =  1.52E-05,  avg # of iterations =  2.0

     negative rho (up, down):  2.371E-03 0.000E+00
 
     Adding external electric field

     Computed dipole along edir(3) : 
        Dipole                0.1884 Ry au,          0.4790 Debye
        Dipole field          0.0013 Ry au
 
        Potential amp.       -0.0893 Ry
        Total length         35.2972 bohr
 

     total cpu time spent up to now is       90.7 secs

     total energy              =   -1205.80804785 Ry
     Harris-Foulkes estimate   =   -1205.80835894 Ry
     estimated scf accuracy    <       0.00227246 Ry

     iteration #  5     ecut=    29.40 Ry     beta=0.10
     Davidson diagonalization with overlap
     ethr =  2.71E-06,  avg # of iterations =  3.5

     negative rho (up, down):  2.402E-03 0.000E+00
 
     Adding external electric field

     Computed dipole along edir(3) : 
        Dipole                0.1948 Ry au,          0.4952 Debye
        Dipole field          0.0013 Ry au
 
        Potential amp.       -0.0923 Ry
        Total length         35.2972 bohr
 

     total cpu time spent up to now is       92.5 secs

     total energy              =   -1205.80818184 Ry
     Harris-Foulkes estimate   =   -1205.80819364 Ry
     estimated scf accuracy    <       0.00047767 Ry

     iteration #  6     ecut=    29.40 Ry     beta=0.10
     Davidson diagonalization with overlap
     ethr =  5.69E-07,  avg # of iterations =  1.8

     negative rho (up, down):  2.394E-03 0.000E+00
 
     Adding external electric field

     Computed dipole along edir(3) : 
        Dipole                0.2067 Ry au,          0.5254 Debye
        Dipole field          0.0014 Ry au
 
        Potential amp.       -0.0979 Ry
        Total length         35.2972 bohr
 

     total cpu time spent up to now is       93.9 secs

     total energy              =   -1205.80818951 Ry
     Harris-Foulkes estimate   =   -1205.80818185 Ry
     estimated scf accuracy    <       0.00017700 Ry

     iteration #  7     ecut=    29.40 Ry     beta=0.10
     Davidson diagonalization with overlap
     ethr =  2.11E-07,  avg # of iterations =  4.0

     negative rho (up, down):  2.370E-03 0.000E+00
 
     Adding external electric field

     Computed dipole along edir(3) : 
        Dipole                0.2036 Ry au,          0.5175 Debye
        Dipole field          0.0014 Ry au
 
        Potential amp.       -0.0964 Ry
        Total length         35.2972 bohr
 

     total cpu time spent up to now is       95.7 secs

     total energy              =   -1205.80820683 Ry
     Harris-Foulkes estimate   =   -1205.80822628 Ry
     estimated scf accuracy    <       0.00010508 Ry

     iteration #  8     ecut=    29.40 Ry     beta=0.10
     Davidson diagonalization with overlap
     ethr =  1.25E-07,  avg # of iterations =  1.8

     negative rho (up, down):  2.339E-03 0.000E+00
 
     Adding external electric field

     Computed dipole along edir(3) : 
        Dipole                0.2037 Ry au,          0.5176 Debye
        Dipole field          0.0014 Ry au
 
        Potential amp.       -0.0965 Ry
        Total length         35.2972 bohr
 

     total cpu time spent up to now is       97.1 secs

     total energy              =   -1205.80821910 Ry
     Harris-Foulkes estimate   =   -1205.80821498 Ry
     estimated scf accuracy    <       0.00000597 Ry

     iteration #  9     ecut=    29.40 Ry     beta=0.10
     Davidson diagonalization with overlap
     ethr =  7.10E-09,  avg # of iterations =  2.0

     negative rho (up, down):  2.308E-03 0.000E+00
 
     Adding external electric field

     Computed dipole along edir(3) : 
        Dipole                0.2032 Ry au,          0.5166 Debye
        Dipole field          0.0014 Ry au
 
        Potential amp.       -0.0963 Ry
        Total length         35.2972 bohr
 

     total cpu time spent up to now is       98.6 secs

     total energy              =   -1205.80822313 Ry
     Harris-Foulkes estimate   =   -1205.80822066 Ry
     estimated scf accuracy    <       0.00000146 Ry

     iteration # 10     ecut=    29.40 Ry     beta=0.10
     Davidson diagonalization with overlap
     ethr =  1.73E-09,  avg # of iterations =  2.0

     negative rho (up, down):  2.182E-03 0.000E+00
 
     Adding external electric field

     Computed dipole along edir(3) : 
        Dipole                0.2042 Ry au,          0.5191 Debye
        Dipole field          0.0014 Ry au
 
        Potential amp.       -0.0967 Ry
        Total length         35.2972 bohr
 

     total cpu time spent up to now is      100.0 secs

     End of self-consistent calculation

          k = 0.0000 0.0000 0.0000 (  5071 PWs)   bands (ev):

   -90.3913 -90.2011 -90.1874 -90.1763 -53.9054 -53.8436 -53.8144 -53.7354
   -53.6784 -53.6445 -53.6329 -53.6247 -53.6176 -53.6092 -53.5740 -53.5678
   -15.1266  -5.7161  -5.3931  -4.6721  -4.4690  -4.3564  -4.1540  -3.7051
    -3.1881  -2.9859  -2.9715  -2.8569  -2.8499  -2.7955  -2.5839  -2.0181
    -1.9865  -1.7736  -1.6984  -1.6114  -1.4970  -1.4695  -1.2322  -1.1106
    -0.2023   0.4779   1.8245   2.5572   3.2542   4.3159   5.2922   5.5718
     6.4310   6.6322   7.1405   7.8258   8.5877   9.3050   9.6147  10.0133
    10.5216  10.9929  11.1156  11.3434  11.9810  12.3598  12.6074  12.8469
    13.0650  13.6776  13.7785  14.3297  14.6863  15.2344  15.7348  16.3443

          k = 0.0000 0.0998 0.0000 (  5031 PWs)   bands (ev):

   -90.3883 -90.1981 -90.1821 -90.1762 -53.8929 -53.8809 -53.8125 -53.7159
   -53.6879 -53.6732 -53.6677 -53.6609 -53.6314 -53.6201 -53.5726 -53.5665
   -14.7427  -5.9444  -5.0494  -4.0557  -3.8530  -3.7652  -3.6286  -3.4570
    -3.3756  -3.0449  -2.9271  -2.8153  -2.7343  -2.5258  -2.4773  -2.4447
    -2.3028  -2.1826  -1.9622  -1.8947  -1.7924  -1.5239  -1.4405  -1.1546
    -0.5085   1.3775   1.9228   3.7573   4.6285   5.5989   6.5366   6.7979
     7.4644   8.0641   8.3209   8.5727   8.8645   9.2171   9.5937  10.5113
    10.6453  10.8891  11.1455  11.4979  11.7349  12.0682  12.4369  13.0634
    13.5004  13.7035  13.9804  14.3438  14.7399  14.9888  15.3411  15.5340

          k = 0.0000-0.1996 0.0000 (  5048 PWs)   bands (ev):

   -90.3854 -90.1950 -90.1775 -90.1754 -53.9253 -53.8905 -53.8110 -53.7330
   -53.7277 -53.7008 -53.6854 -53.6468 -53.6438 -53.6119 -53.5729 -53.5682
   -14.2901  -6.7086  -4.8155  -4.4065  -4.3509  -4.1688  -4.0323  -3.9407
    -3.8676  -3.1897  -2.9200  -2.6882  -2.5453  -2.0681  -1.9152  -1.6477
    -1.5945  -1.5668  -1.2849  -1.1943  -1.1168  -1.1038  -1.0515  -0.6166
     2.1993   2.3758   3.1228   3.2445   5.0298   5.7994   6.3344   6.5402
     7.0772   8.1609   8.4189   9.4932   9.9110  10.1510  10.4663  10.8016
    11.0096  11.0504  11.1097  11.2626  11.4084  12.1207  12.3247  12.4816
    12.5627  12.6557  13.0596  13.1192  13.4458  13.7635  13.9931  14.3111

          k =-0.0864 0.0499 0.0000 (  5024 PWs)   bands (ev):

   -90.3911 -90.2011 -90.1832 -90.1806 -53.8911 -53.8416 -53.8096 -53.6994
   -53.6805 -53.6744 -53.6334 -53.6310 -53.6288 -53.6158 -53.5762 -53.5643
   -15.1170  -5.5341  -5.3425  -4.1251  -4.0175  -3.8656  -3.7919  -3.4081
    -3.2955  -3.1081  -2.9903  -2.6170  -2.5969  -2.4882  -2.4111  -2.3294
    -2.2496  -2.2376  -2.1314  -1.9564  -1.9186  -1.8695  -1.5334  -1.4413
    -1.3235  -0.1294   1.2336   1.8826   4.0845   4.7386   5.6653   6.0462
     6.6751   6.7863   7.0463   8.0234   8.1861   8.5571   8.9157  10.5288
    10.6980  10.9016  11.3434  11.9621  12.2411  12.3039  13.7872  14.0651
    14.3979  14.7177  14.8823  15.3654  16.0394  16.3708  16.4368  16.9450

          k =-0.0864 0.1497 0.0000 (  5031 PWs)   bands (ev):

   -90.3883 -90.1981 -90.1821 -90.1762 -53.8956 -53.8792 -53.8106 -53.7131
   -53.6890 -53.6760 -53.6689 -53.6626 -53.6283 -53.6201 -53.5726 -53.5665
   -14.7431  -5.9366  -5.0541  -4.0632  -3.8317  -3.7285  -3.6173  -3.4907
    -3.3754  -3.0274  -2.9299  -2.8470  -2.6831  -2.5679  -2.4620  -2.4476
    -2.3216  -2.1762  -1.9865  -1.9124  -1.8330  -1.5111  -1.4548  -1.1689
    -0.4546   1.4690   1.8504   3.7335   4.5937   5.6669   6.5697   6.7327
     7.5585   8.0745   8.2985   8.5222   8.8591   9.2985   9.6035  10.4632
    10.6838  10.8864  10.9711  11.6406  11.7323  12.0442  12.5013  13.0799
    13.5823  13.7626  13.9780  14.3991  14.6715  14.8904  15.3576  15.4519

          k =-0.0864-0.1497 0.0000 (  5038 PWs)   bands (ev):

   -90.3854 -90.1951 -90.1775 -90.1754 -53.9205 -53.8831 -53.8071 -53.7131
   -53.7108 -53.7079 -53.6890 -53.6715 -53.6656 -53.6102 -53.5724 -53.5676
   -14.2960  -6.7093  -4.6373  -3.8155  -3.7360  -3.6484  -3.5429  -3.5165
    -3.4694  -3.0693  -2.9658  -2.8195  -2.7504  -2.6794  -2.5827  -2.4922
    -2.4524  -2.0465  -1.8590  -1.7119  -1.5081  -1.2770  -0.9845  -0.4879
     1.7577   1.8384   3.8378   4.2028   5.7437   6.6385   7.8243   8.2200
     8.2370   8.4329   8.6988   9.0890   9.4109   9.5040   9.7141  10.0275
    10.4315  10.7536  10.9154  11.2450  11.5459  11.8148  12.0213  12.2462
    12.6754  13.1183  13.6238  13.6789  14.0918  14.3089  14.5767  14.7417

     the Fermi energy is     1.8064 ev

!    total energy              =   -1205.80823920 Ry
     Harris-Foulkes estimate   =   -1205.80822053 Ry
     estimated scf accuracy    <       0.00000059 Ry

     The total energy is the sum of the following terms:

     one-electron contribution =   -5922.78844759 Ry
     hartree contribution      =    2959.33834336 Ry
     xc contribution           =    -123.17849265 Ry
     ewald contribution        =    1880.83050448 Ry
     electric field correction =       0.00027989 Ry
     smearing contrib. (-TS)   =      -0.01042670 Ry

     convergence has been achieved in  10 iterations

     Forces acting on atoms (Ry/au):


     negative rho (up, down):  2.182E-03 0.000E+00
     atom    1 type  1   force =    -0.00159613    0.00113375   -0.01835895
     atom    2 type  1   force =     0.00192775   -0.00120572   -0.01917379
     atom    3 type  1   force =     0.00413506   -0.00499157    0.02162374
     atom    4 type  1   force =     0.00046191    0.01001701   -0.01803928
     atom    5 type  2   force =    -0.00832512    0.42063221    0.10239675
     atom    6 type  3   force =    -0.00893305   -0.07912412   -0.13864208
     atom    7 type  3   force =    -0.06125702   -0.28908963    0.01701699
     atom    8 type  3   force =     0.07358661   -0.05737193    0.05317662

     Total force =     0.560220     Total SCF correction =     0.003276
 !ASE
     Check: negative starting charge=   -0.002242
     NEW-OLD atomic charge density approx. for the potential
     Check: negative starting charge=   -0.002298

     negative rho (up, down):  2.365E-03 0.000E+00
 
     Adding external electric field

     Computed dipole along edir(3) : 
        Dipole                0.2042 Ry au,          0.5191 Debye
        Dipole field          0.0014 Ry au
 
        Potential amp.       -0.0967 Ry
        Total length         35.2972 bohr
 

     total cpu time spent up to now is      101.5 secs

     per-process dynamical memory:    31.3 Mb

     Self-consistent Calculation

     iteration #  1     ecut=    29.40 Ry     beta=0.10
     Davidson diagonalization with overlap
     ethr =  1.73E-09,  avg # of iterations =  9.2

     negative rho (up, down):  2.344E-03 0.000E+00
 
     Adding external electric field

     Computed dipole along edir(3) : 
        Dipole                0.2349 Ry au,          0.5971 Debye
        Dipole field          0.0016 Ry au
 
        Potential amp.       -0.1113 Ry
        Total length         35.2972 bohr
 

     total cpu time spent up to now is      105.3 secs

     total energy              =   -1205.85981316 Ry
     Harris-Foulkes estimate   =   -1205.86103246 Ry
     estimated scf accuracy    <       0.01485384 Ry

     iteration #  2     ecut=    29.40 Ry     beta=0.10
     Davidson diagonalization with overlap
     ethr =  1.77E-05,  avg # of iterations =  2.5

     negative rho (up, down):  2.324E-03 0.000E+00
 
     Adding external electric field

     Computed dipole along edir(3) : 
        Dipole                0.2200 Ry au,          0.5591 Debye
        Dipole field          0.0015 Ry au
 
        Potential amp.       -0.1042 Ry
        Total length         35.2972 bohr
 

     total cpu time spent up to now is      106.8 secs

     total energy              =   -1205.85940263 Ry
     Harris-Foulkes estimate   =   -1205.86017916 Ry
     estimated scf accuracy    <       0.01038152 Ry

     iteration #  3     ecut=    29.40 Ry     beta=0.10
     Davidson diagonalization with overlap
     ethr =  1.24E-05,  avg # of iterations =  1.0

     negative rho (up, down):  2.384E-03 0.000E+00
 
     Adding external electric field

     Computed dipole along edir(3) : 
        Dipole                0.2368 Ry au,          0.6020 Debye
        Dipole field          0.0016 Ry au
 
        Potential amp.       -0.1122 Ry
        Total length         35.2972 bohr
 

     total cpu time spent up to now is      108.1 secs

     total energy              =   -1205.85764178 Ry
     Harris-Foulkes estimate   =   -1205.85947907 Ry
     estimated scf accuracy    <       0.00760746 Ry

     iteration #  4     ecut=    29.40 Ry     beta=0.10
     Davidson diagonalization with overlap
     ethr =  9.06E-06,  avg # of iterations =  3.2

     negative rho (up, down):  2.427E-03 0.000E+00
 
     Adding external electric field

     Computed dipole along edir(3) : 
        Dipole                0.2346 Ry au,          0.5962 Debye
        Dipole field          0.0016 Ry au
 
        Potential amp.       -0.1111 Ry
        Total length         35.2972 bohr
 

     total cpu time spent up to now is      109.8 secs

     total energy              =   -1205.85816274 Ry
     Harris-Foulkes estimate   =   -1205.85819684 Ry
     estimated scf accuracy    <       0.00105055 Ry

     iteration #  5     ecut=    29.40 Ry     beta=0.10
     Davidson diagonalization with overlap
     ethr =  1.25E-06,  avg # of iterations =  2.5

     negative rho (up, down):  2.442E-03 0.000E+00
 
     Adding external electric field

     Computed dipole along edir(3) : 
        Dipole                0.2200 Ry au,          0.5591 Debye
        Dipole field          0.0015 Ry au
 
        Potential amp.       -0.1042 Ry
        Total length         35.2972 bohr
 

     total cpu time spent up to now is      111.4 secs

     total energy              =   -1205.85820185 Ry
     Harris-Foulkes estimate   =   -1205.85826600 Ry
     estimated scf accuracy    <       0.00027905 Ry

     iteration #  6     ecut=    29.40 Ry     beta=0.10
     Davidson diagonalization with overlap
     ethr =  3.32E-07,  avg # of iterations =  3.0

     negative rho (up, down):  2.416E-03 0.000E+00
 
     Adding external electric field

[...]

     Computed dipole along edir(3) : 
        Dipole               -0.1272 Ry au,         -0.3233 Debye
        Dipole field         -0.0009 Ry au
 
        Potential amp.        0.0603 Ry
        Total length         35.2972 bohr
 

     total cpu time spent up to now is      616.6 secs

     End of self-consistent calculation

          k = 0.0000 0.0000 0.0000 (  5071 PWs)   bands (ev):

   -91.2502 -91.0693 -91.0536 -91.0207 -54.7365 -54.6935 -54.6764 -54.6138
   -54.5293 -54.5074 -54.4975 -54.4960 -54.4713 -54.4706 -54.4459 -54.3974
   -14.4116  -5.9848  -5.3057  -5.2115  -5.0497  -4.8156  -4.5257  -4.2639
    -3.9526  -3.8165  -3.8104  -3.7242  -3.7188  -3.4283  -3.3719  -2.8407
    -2.8331  -2.6927  -2.4657  -2.3447  -2.3280  -2.3200  -2.0761  -1.9863
    -0.7872   0.5678   1.4826   1.5498   2.3627   4.4047   5.1049   5.3063
     5.5341   6.5783   7.0892   7.4150   8.8147   9.3759   9.6998  10.2403
    10.5369  11.0255  11.3540  11.4179  11.8170  12.3669  12.6067  12.8908
    12.9207  13.0252  13.8747  14.3010  14.7218  15.5598  15.8306  16.1203

          k = 0.0000 0.0998 0.0000 (  5031 PWs)   bands (ev):

   -91.2472 -91.0647 -91.0524 -91.0181 -54.7257 -54.7164 -54.6876 -54.5947
   -54.5584 -54.5486 -54.5183 -54.5162 -54.5045 -54.4605 -54.4419 -54.3975
   -14.0316  -4.9927  -4.7656  -4.6550  -4.6249  -4.5240  -4.4308  -4.3021
    -4.0124  -3.7918  -3.6900  -3.5668  -3.4590  -3.3748  -3.3229  -3.2836
    -3.1224  -3.0250  -2.7860  -2.7295  -2.5782  -2.3486  -2.2940  -2.0507
    -0.8337   0.4100   0.9399   3.0989   3.6865   5.8893   6.6175   6.8262
     7.3729   7.7758   8.0874   8.3137   8.8658   9.7348  10.1044  10.1855
    10.6234  10.6896  10.8942  11.0651  11.4731  11.7629  12.6173  12.9223
    13.3390  13.4793  13.8589  13.9738  14.3665  14.8138  15.0801  15.4435

          k = 0.0000-0.1996 0.0000 (  5048 PWs)   bands (ev):

   -91.2443 -91.0612 -91.0501 -91.0154 -54.7629 -54.7225 -54.6858 -54.6153
   -54.6123 -54.5500 -54.5336 -54.5241 -54.5064 -54.4550 -54.4362 -54.4012
   -13.5858  -5.2575  -5.2257  -5.2035  -5.0388  -5.0345  -4.8421  -4.8161
    -4.1007  -4.0200  -3.5441  -3.4080  -3.3886  -2.7411  -2.5754  -2.4725
    -2.4318  -2.4051  -2.2429  -2.1116  -2.0504  -1.9928  -1.9739  -0.9858
     1.4632   1.4993   2.3595   2.3683   3.7891   5.3547   5.5068   5.7497
     7.2862   7.9886   9.4646   9.5792   9.5893  10.1337  10.5540  10.5867
    11.0668  11.1720  11.4420  11.5452  11.8192  11.9504  12.2645  12.3686
    12.6974  12.7310  12.9155  12.9626  13.0217  13.2408  13.5428  14.3268

          k =-0.0864 0.0499 0.0000 (  5024 PWs)   bands (ev):

   -91.2500 -91.0668 -91.0561 -91.0209 -54.7211 -54.6912 -54.6746 -54.5622
   -54.5521 -54.5238 -54.5167 -54.5093 -54.4715 -54.4669 -54.4492 -54.3953
   -14.4038  -5.0633  -4.9568  -4.7907  -4.7018  -4.5283  -4.3730  -4.2648
    -4.1419  -3.8373  -3.5788  -3.4377  -3.3716  -3.3483  -3.2582  -3.1968
    -3.1103  -3.0640  -2.9909  -2.8032  -2.7570  -2.6551  -2.3917  -2.2889
    -2.1626   0.1328   0.2946   0.6550   3.2643   3.9079   6.3257   6.6192
     6.7047   7.1139   7.9287   8.2263   8.2564   8.6296   9.3718  10.2320
    10.7711  10.8968  11.0356  11.1290  11.7870  11.9727  13.3756  13.6270
    14.0375  14.2276  14.6440  15.1841  15.3983  15.5757  15.9163  16.4158

          k =-0.0864 0.1497 0.0000 (  5031 PWs)   bands (ev):

   -91.2472 -91.0647 -91.0524 -91.0181 -54.7254 -54.7168 -54.6874 -54.5945
   -54.5586 -54.5487 -54.5183 -54.5162 -54.5043 -54.4605 -54.4419 -54.3975
   -14.0318  -4.9904  -4.7632  -4.6560  -4.6115  -4.5216  -4.4312  -4.3094
    -4.0025  -3.7881  -3.7100  -3.5569  -3.4564  -3.3866  -3.3201  -3.2852
    -3.1174  -3.0253  -2.7866  -2.7295  -2.5817  -2.3483  -2.2958  -2.0447
    -0.8757   0.4217   0.9371   3.0955   3.6980   5.8793   6.6376   6.8352
     7.3675   7.7883   8.0817   8.3185   8.8637   9.7278  10.1086  10.2139
    10.6214  10.7225  10.8800  11.0632  11.5870  11.8236  12.3231  12.9783
    13.3012  13.5358  13.9115  13.9716  14.3592  14.8184  15.1539  15.4397

          k =-0.0864-0.1497 0.0000 (  5038 PWs)   bands (ev):

   -91.2443 -91.0612 -91.0502 -91.0154 -54.7583 -54.7131 -54.6838 -54.5961
   -54.5929 -54.5609 -54.5548 -54.5422 -54.5147 -54.4538 -54.4356 -54.4006
   -13.5906  -5.2471  -4.6727  -4.6577  -4.5438  -4.4957  -4.3803  -4.3800
    -3.8369  -3.8032  -3.7116  -3.6004  -3.5906  -3.5098  -3.3507  -3.3110
    -3.2418  -2.7608  -2.7067  -2.5441  -2.3480  -2.1335  -2.1178  -0.9826
     0.9360   0.9487   3.0182   3.4101   5.3013   7.1211   7.3793   7.4643
     7.7202   7.8934   8.7755   8.8773   9.4462   9.7033   9.9583  10.0336
    10.3078  10.4388  10.6939  10.9537  11.1611  11.3592  11.5160  11.7758
    12.6355  13.0042  13.4513  13.5708  13.6616  13.8635  13.9430  14.6842

     the Fermi energy is     0.8826 ev

!    total energy              =   -1205.90493668 Ry
     Harris-Foulkes estimate   =   -1205.90493635 Ry
     estimated scf accuracy    <       0.00000062 Ry

     The total energy is the sum of the following terms:

     one-electron contribution =   -5608.68487373 Ry
     hartree contribution      =    2800.51085915 Ry
     xc contribution           =    -123.08093550 Ry
     ewald contribution        =    1725.35854398 Ry
     electric field correction =       0.00010858 Ry
     smearing contrib. (-TS)   =      -0.00863915 Ry

     convergence has been achieved in   5 iterations

     Forces acting on atoms (Ry/au):


     negative rho (up, down):  2.116E-03 0.000E+00
     atom    1 type  1   force =    -0.00071522    0.00039606   -0.02437235
     atom    2 type  1   force =     0.00062552   -0.00034869   -0.02575776
     atom    3 type  1   force =    -0.00002037    0.00000727    0.02316543
     atom    4 type  1   force =    -0.00018577   -0.00014409    0.02635432
     atom    5 type  2   force =    -0.01601735    0.00216226   -0.14367461
     atom    6 type  3   force =     0.00022942    0.00021773   -0.00027828
     atom    7 type  3   force =     0.00017920   -0.00010965    0.00030979
     atom    8 type  3   force =     0.01590457   -0.00218088    0.14425345

     Total force =     0.210857     Total SCF correction =     0.003880
 !ASE
     Check: negative starting charge=   -0.002049
     NEW-OLD atomic charge density approx. for the potential
     Check: negative starting charge=   -0.002049

     negative rho (up, down):  2.118E-03 0.000E+00
 
     Adding external electric field

     Computed dipole along edir(3) : 
        Dipole               -0.1272 Ry au,         -0.3233 Debye
        Dipole field         -0.0009 Ry au
 
        Potential amp.        0.0603 Ry
        Total length         35.2972 bohr
 

     total cpu time spent up to now is      617.8 secs

     per-process dynamical memory:    31.3 Mb

     Self-consistent Calculation

     iteration #  1     ecut=    29.40 Ry     beta=0.10
     Davidson diagonalization with overlap
     ethr =  9.03E-09,  avg # of iterations =  3.5

     negative rho (up, down):  2.118E-03 0.000E+00
 
     Adding external electric field

     Computed dipole along edir(3) : 
        Dipole               -0.1260 Ry au,         -0.3204 Debye
        Dipole field         -0.0008 Ry au
 
        Potential amp.        0.0597 Ry
        Total length         35.2972 bohr
 

     total cpu time spent up to now is      620.2 secs

     total energy              =   -1205.90495244 Ry
     Harris-Foulkes estimate   =   -1205.90495986 Ry
     estimated scf accuracy    <       0.00005142 Ry

     iteration #  2     ecut=    29.40 Ry     beta=0.10
     Davidson diagonalization with overlap
     ethr =  6.12E-08,  avg # of iterations =  1.0

     negative rho (up, down):  2.117E-03 0.000E+00
 
     Adding external electric field

     Computed dipole along edir(3) : 
        Dipole               -0.1280 Ry au,         -0.3252 Debye
        Dipole field         -0.0009 Ry au
 
        Potential amp.        0.0606 Ry
        Total length         35.2972 bohr
 

     total cpu time spent up to now is      621.5 secs

     total energy              =   -1205.90495152 Ry
     Harris-Foulkes estimate   =   -1205.90495115 Ry
     estimated scf accuracy    <       0.00004248 Ry

     iteration #  3     ecut=    29.40 Ry     beta=0.10
     Davidson diagonalization with overlap
     ethr =  5.06E-08,  avg # of iterations =  1.0

     negative rho (up, down):  2.117E-03 0.000E+00
 
     Adding external electric field

     Computed dipole along edir(3) : 
        Dipole               -0.1298 Ry au,         -0.3299 Debye
        Dipole field         -0.0009 Ry au
 
        Potential amp.        0.0615 Ry
        Total length         35.2972 bohr
 

     total cpu time spent up to now is      622.8 secs

     total energy              =   -1205.90494654 Ry
     Harris-Foulkes estimate   =   -1205.90494942 Ry
     estimated scf accuracy    <       0.00002527 Ry

     iteration #  4     ecut=    29.40 Ry     beta=0.10
     Davidson diagonalization with overlap
     ethr =  3.01E-08,  avg # of iterations =  2.0

     negative rho (up, down):  2.117E-03 0.000E+00
 
     Adding external electric field

     Computed dipole along edir(3) : 
        Dipole               -0.1300 Ry au,         -0.3305 Debye
        Dipole field         -0.0009 Ry au
 
        Potential amp.        0.0616 Ry
        Total length         35.2972 bohr
 

     total cpu time spent up to now is      624.3 secs

     total energy              =   -1205.90494911 Ry
     Harris-Foulkes estimate   =   -1205.90494868 Ry
     estimated scf accuracy    <       0.00000396 Ry

     iteration #  5     ecut=    29.40 Ry     beta=0.10
     Davidson diagonalization with overlap
     ethr =  4.72E-09,  avg # of iterations =  1.0

     negative rho (up, down):  2.117E-03 0.000E+00
 
     Adding external electric field

     Computed dipole along edir(3) : 
        Dipole               -0.1297 Ry au,         -0.3296 Debye
        Dipole field         -0.0009 Ry au
 
        Potential amp.        0.0614 Ry
        Total length         35.2972 bohr
 

     total cpu time spent up to now is      625.6 secs

     total energy              =   -1205.90494926 Ry
     Harris-Foulkes estimate   =   -1205.90494980 Ry
     estimated scf accuracy    <       0.00000181 Ry

     iteration #  6     ecut=    29.40 Ry     beta=0.10
     Davidson diagonalization with overlap
     ethr =  2.15E-09,  avg # of iterations =  2.0

     negative rho (up, down):  2.116E-03 0.000E+00
 
     Adding external electric field

     Computed dipole along edir(3) : 
        Dipole               -0.1289 Ry au,         -0.3276 Debye
        Dipole field         -0.0009 Ry au
 
        Potential amp.        0.0610 Ry
        Total length         35.2972 bohr
 

     total cpu time spent up to now is      627.0 secs

     End of self-consistent calculation

          k = 0.0000 0.0000 0.0000 (  5071 PWs)   bands (ev):

   -91.2540 -91.0740 -91.0586 -91.0275 -54.7409 -54.6966 -54.6804 -54.6186
   -54.5341 -54.5136 -54.5025 -54.5010 -54.4779 -54.4758 -54.4509 -54.4037
   -14.4154  -5.9896  -5.3101  -5.2168  -5.0547  -4.8189  -4.5251  -4.2696
    -3.9558  -3.8215  -3.8157  -3.7291  -3.7237  -3.4331  -3.3740  -2.8458
    -2.8379  -2.7001  -2.4701  -2.3491  -2.3338  -2.3255  -2.0813  -1.9913
    -0.7942   0.5624   1.4781   1.5428   2.3571   4.4022   5.1022   5.3083
     5.5313   6.5806   7.0908   7.4157   8.7865   9.3785   9.6897  10.2332
    10.5241  11.0371  11.3634  11.4235  11.8214  12.3643  12.6099  12.8949
    12.9163  13.0233  13.8740  14.3139  14.7177  15.5536  15.8344  16.1148

          k = 0.0000 0.0998 0.0000 (  5031 PWs)   bands (ev):

   -91.2510 -91.0693 -91.0575 -91.0249 -54.7301 -54.7204 -54.6905 -54.5995
   -54.5631 -54.5536 -54.5244 -54.5223 -54.5102 -54.4655 -54.4470 -54.4039
   -14.0349  -4.9971  -4.7690  -4.6604  -4.6301  -4.5279  -4.4355  -4.3075
    -4.0148  -3.7972  -3.6958  -3.5719  -3.4627  -3.3802  -3.3273  -3.2883
    -3.1266  -3.0301  -2.7909  -2.7343  -2.5837  -2.3538  -2.2993  -2.0581
    -0.8363   0.4052   0.9345   3.0951   3.6799   5.8848   6.6136   6.8303
     7.3677   7.7720   8.0894   8.3132   8.8584   9.7353  10.1013  10.1816
    10.6268  10.6847  10.8924  11.0604  11.4752  11.7584  12.6074  12.9235
    13.3323  13.4794  13.8552  13.9722  14.3647  14.8083  15.0829  15.4428

          k = 0.0000-0.1996 0.0000 (  5048 PWs)   bands (ev):

   -91.2481 -91.0657 -91.0552 -91.0222 -54.7670 -54.7269 -54.6888 -54.6203
   -54.6168 -54.5564 -54.5386 -54.5291 -54.5126 -54.4599 -54.4413 -54.4078
   -13.5884  -5.2680  -5.2306  -5.2086  -5.0431  -5.0396  -4.8479  -4.8208
    -4.1003  -4.0247  -3.5507  -3.4091  -3.3935  -2.7460  -2.5787  -2.4777
    -2.4371  -2.4107  -2.2507  -2.1164  -2.0557  -1.9977  -1.9792  -0.9849
     1.4582   1.4935   2.3543   2.3627   3.7903   5.3478   5.5000   5.7445
     7.2736   7.9864   9.4630   9.5722   9.5837  10.1431  10.5458  10.5861
    11.0546  11.1716  11.4445  11.5442  11.8198  11.9561  12.2564  12.3737
    12.6993  12.7278  12.9125  12.9576  13.0273  13.2442  13.5403  14.3290

          k =-0.0864 0.0499 0.0000 (  5024 PWs)   bands (ev):

   -91.2538 -91.0714 -91.0612 -91.0276 -54.7254 -54.6941 -54.6785 -54.5669
   -54.5572 -54.5303 -54.5212 -54.5145 -54.4780 -54.4721 -54.4542 -54.4016
   -14.4076  -5.0657  -4.9616  -4.7940  -4.7070  -4.5315  -4.3743  -4.2704
    -4.1483  -3.8427  -3.5878  -3.4419  -3.3722  -3.3517  -3.2635  -3.2019
    -3.1164  -3.0687  -2.9964  -2.8078  -2.7624  -2.6597  -2.3960  -2.2947
    -2.1680   0.1272   0.2876   0.6509   3.2596   3.9003   6.3213   6.6162
     6.7099   7.1177   7.9403   8.2190   8.2561   8.6296   9.3696  10.2349
    10.7648  10.8981  11.0291  11.1231  11.7734  11.9692  13.3745  13.6237
    14.0319  14.2272  14.6434  15.1921  15.3961  15.5701  15.9058  16.4089

          k =-0.0864 0.1497 0.0000 (  5031 PWs)   bands (ev):

   -91.2510 -91.0693 -91.0575 -91.0249 -54.7297 -54.7210 -54.6904 -54.5993
   -54.5633 -54.5538 -54.5244 -54.5222 -54.5101 -54.4655 -54.4470 -54.4039
   -14.0351  -4.9946  -4.7663  -4.6613  -4.6167  -4.5256  -4.4361  -4.3150
    -4.0046  -3.7933  -3.7168  -3.5614  -3.4606  -3.3915  -3.3248  -3.2901
    -3.1214  -3.0305  -2.7915  -2.7341  -2.5871  -2.3533  -2.3012  -2.0519
    -0.8779   0.4166   0.9319   3.0918   3.6916   5.8730   6.6325   6.8396
     7.3623   7.7862   8.0834   8.3175   8.8573   9.7281  10.1026  10.2144
    10.6253  10.7177  10.8758  11.0595  11.5895  11.8184  12.3197  12.9792
    13.3003  13.5311  13.9063  13.9716  14.3562  14.8126  15.1549  15.4371

          k =-0.0864-0.1497 0.0000 (  5038 PWs)   bands (ev):

   -91.2481 -91.0657 -91.0552 -91.0222 -54.7624 -54.7174 -54.6867 -54.6006
   -54.5980 -54.5674 -54.5595 -54.5473 -54.5212 -54.4587 -54.4407 -54.4071
   -13.5932  -5.2580  -4.6770  -4.6608  -4.5475  -4.5005  -4.3858  -4.3855
    -3.8431  -3.8077  -3.7127  -3.6060  -3.5947  -3.5151  -3.3561  -3.3162
    -3.2447  -2.7647  -2.7119  -2.5494  -2.3529  -2.1392  -2.1238  -0.9824
     0.9307   0.9437   3.0140   3.4045   5.2993   7.1132   7.3745   7.4590
     7.7110   7.8882   8.7712   8.8680   9.4402   9.7106   9.9542  10.0324
    10.3036  10.4347  10.6889  10.9533  11.1685  11.3590  11.5194  11.7782
    12.6314  12.9977  13.4490  13.5710  13.6594  13.8491  13.9393  14.6717

     the Fermi energy is     0.8774 ev

!    total energy              =   -1205.90494938 Ry
     Harris-Foulkes estimate   =   -1205.90495075 Ry
     estimated scf accuracy    <       0.00000029 Ry

     The total energy is the sum of the following terms:

     one-electron contribution =   -5607.86351777 Ry
     hartree contribution      =    2800.09791050 Ry
     xc contribution           =    -123.08083839 Ry
     ewald contribution        =    1724.95002863 Ry
     electric field correction =       0.00011146 Ry
     smearing contrib. (-TS)   =      -0.00864382 Ry

     convergence has been achieved in   6 iterations

     Forces acting on atoms (Ry/au):


     negative rho (up, down):  2.116E-03 0.000E+00
     atom    1 type  1   force =    -0.00065324    0.00036452   -0.02473473
     atom    2 type  1   force =     0.00059344   -0.00032978   -0.02600942
     atom    3 type  1   force =     0.00015560   -0.00010249    0.02365497
     atom    4 type  1   force =    -0.00036891   -0.00000852    0.02720653
     atom    5 type  2   force =    -0.01440863    0.00239395   -0.14431611
     atom    6 type  3   force =     0.00050532   -0.00005613   -0.00038766
     atom    7 type  3   force =     0.00017978   -0.00030274    0.00015615
     atom    8 type  3   force =     0.01399664   -0.00195881    0.14443026

     Total force =     0.211400     Total SCF correction =     0.003332
 !ASE
 
     init_run     :      0.92s CPU      0.93s WALL (       1 calls)
     electrons    :    567.65s CPU    572.70s WALL (      40 calls)
     update_pot   :     22.05s CPU     22.29s WALL (      39 calls)
     forces       :     26.34s CPU     26.43s WALL (      40 calls)

     Called by init_run:
     wfcinit      :      0.33s CPU      0.33s WALL (       1 calls)
     potinit      :      0.14s CPU      0.14s WALL (       1 calls)

     Called by electrons:
     c_bands      :    432.01s CPU    435.77s WALL (     337 calls)
     sum_band     :     84.00s CPU     84.82s WALL (     337 calls)
     v_of_rho     :      8.91s CPU      9.05s WALL (     377 calls)
     newd         :     43.91s CPU     44.06s WALL (     377 calls)
     mix_rho      :      2.17s CPU      2.17s WALL (     337 calls)

     Called by c_bands:
     init_us_2    :      2.38s CPU      2.42s WALL (    4290 calls)
     cegterg      :    418.41s CPU    421.98s WALL (    2022 calls)

     Called by *egterg:
     h_psi        :    187.79s CPU    190.28s WALL (    6985 calls)
     s_psi        :     12.47s CPU     12.50s WALL (    6985 calls)
     g_psi        :      1.85s CPU      1.85s WALL (    4957 calls)
     cdiaghg      :    119.26s CPU    119.64s WALL (    6745 calls)

     Called by h_psi:
     add_vuspsi   :     12.82s CPU     12.92s WALL (    6985 calls)

     General routines
     calbec       :     23.63s CPU     23.72s WALL (    9247 calls)
     fft          :     13.59s CPU     13.73s WALL (    6351 calls)
     ffts         :      0.22s CPU      0.24s WALL (     714 calls)
     fftw         :    157.23s CPU    159.81s WALL (  810328 calls)
     interpolate  :      1.13s CPU      1.17s WALL (     714 calls)
 
     Parallel routines
     fft_scatter  :     79.69s CPU     79.31s WALL (  817393 calls)
 
     PWSCF        : 10m21.36s CPU    10m27.87s WALL

 
   This run was terminated on:   5:50:46  18Feb2017            

=------------------------------------------------------------------------------=
   JOB DONE.
=------------------------------------------------------------------------------=
Job  /afs/slac/g/suncat/bin/suncat-tsmpirun -x LD_LIBRARY_PATH -wdir /scratch/qe259882_t1kkK pw.x -in pw.inp

TID   HOST_NAME   COMMAND_LINE            STATUS            TERMINATION_TIME
===== ========== ================  =======================  ===================
00000 suncat1015 pw.x -in pw.inp   Done                     02/18/2017 05:50:46
00001 suncat1015 pw.x -in pw.inp   Done                     02/18/2017 05:50:46
00002 suncat1015 pw.x -in pw.inp   Done                     02/18/2017 05:50:46
00003 suncat1015 pw.x -in pw.inp   Done                     02/18/2017 05:50:46
00004 suncat1015 pw.x -in pw.inp   Done                     02/18/2017 05:50:46
00005 suncat1015 pw.x -in pw.inp   Done                     02/18/2017 05:50:46
00006 suncat1015 pw.x -in pw.inp   Done                     02/18/2017 05:50:46
00007 suncat1015 pw.x -in pw.inp   Done                     02/18/2017 05:50:46
00008 suncat1015 pw.x -in pw.inp   Done                     02/18/2017 05:50:46
00009 suncat1015 pw.x -in pw.inp   Done                     02/18/2017 05:50:46
00010 suncat1015 pw.x -in pw.inp   Done                     02/18/2017 05:50:46
00011 suncat1015 pw.x -in pw.inp   Done                     02/18/2017 05:50:46
