  python dir          : /nfs/slac/g/suncatfs/aidank/software/ase-espresso/lib/python2.7/site-packages/espresso
  espresso dir        : /nfs/slac/g/suncatfs/aidank/software/espresso-qeforge/bin
  pseudo dir          : /nfs/slac/g/suncatfs/aidank/scripts/gbrv/
  ase-espresso py git : c91b4c2-git



     Program PWSCF v.5.0.2 (svn rev. 10453) starts on 18Feb2017 at  6:46:17 

     This program is part of the open-source Quantum ESPRESSO suite
     for quantum simulation of materials; please cite
         "P. Giannozzi et al., J. Phys.:Condens. Matter 21 395502 (2009);
          URL http://www.quantum-espresso.org", 
     in publications or presentations arising from this work. More details at
     http://www.quantum-espresso.org/quote

     Parallel version (MPI), running on    12 processors
     R & G space division:  proc/nbgrp/npool/nimage =      12
     Reading input from pw.inp
     Message from routine read_cards :
     DEPRECATED: no units specified in CELL_PARAMETERS card

     Current dimensions of program PWSCF are:
     Max number of different atomic species (ntypx) = 10
     Max number of k-points (npk) =  40000
     Max angular momentum in pseudopotentials (lmaxx) =  3
     Presently no symmetry can be used with electric field


     IMPORTANT: XC functional enforced from input :
     Exchange-correlation      = PBE ( 1  4  3  4 0)
     Any further DFT definition will be discarded
     Please, verify this is what you really want


     Subspace diagonalization in iterative solution of the eigenvalue problem:
     a serial algorithm will be used

 
     Parallelization info
     --------------------
     sticks:   dense  smooth     PW     G-vecs:    dense   smooth      PW
     Min          81      39     12                 9513     3338     586
     Max          82      40     16                 9522     3378     597
     Sum         981     479    161               114205    40347    7083
 


     bravais-lattice index     =            0
     lattice parameter (alat)  =       1.8897  a.u.
     unit-cell volume          =    1872.8848 (a.u.)^3
     number of atoms/cell      =            8
     number of atomic types    =            3
     number of electrons       =        84.00
     number of Kohn-Sham states=           72
     kinetic-energy cutoff     =      29.3995  Ry
     charge density cutoff     =     235.1957  Ry
     convergence threshold     =      1.0E-06
     mixing beta               =       0.1000
     number of iterations used =           15  plain     mixing
     Exchange-correlation      = PBE ( 1  4  3  4 0)
     nstep                     =           50


     celldm(1)=   1.889726  celldm(2)=   0.000000  celldm(3)=   0.000000
     celldm(4)=   0.000000  celldm(5)=   0.000000  celldm(6)=   0.000000

     crystal axes: (cart. coord. in units of alat)
               a(1) = (   5.784133   0.000000   0.000000 )  
               a(2) = (   1.446033   2.504603   0.000000 )  
               a(3) = (   0.000000   0.000000  19.157428 )  

     reciprocal axes: (cart. coord. in units 2 pi/alat)
               b(1) = (  0.172887 -0.099816  0.000000 )  
               b(2) = (  0.000000  0.399265  0.000000 )  
               b(3) = (  0.000000  0.000000  0.052199 )  


     PseudoPot. # 1 for Ag read from file:
     /nfs/slac/g/suncatfs/aidank/scripts/gbrv/Ag.UPF
     MD5 check sum: d66d668201baa78d5eb5b04ef7011058
     Pseudo is Ultrasoft + core correction, Zval = 19.0
     Generated by new atomic code, or converted to UPF format
     Using radial grid of  887 points,  6 beta functions with: 
                l(1) =   0
                l(2) =   0
                l(3) =   1
                l(4) =   1
                l(5) =   2
                l(6) =   2
     Q(r) pseudized with  6 coefficients,  rinner =    1.300   1.300   1.300
                                                       1.300   1.300

     PseudoPot. # 2 for N  read from file:
     /nfs/slac/g/suncatfs/aidank/scripts/gbrv/N.UPF
     MD5 check sum: 95339753478d7afb44899504a8723017
     Pseudo is Ultrasoft + core correction, Zval =  5.0
     Generated by new atomic code, or converted to UPF format
     Using radial grid of  729 points,  4 beta functions with: 
                l(1) =   0
                l(2) =   0
                l(3) =   1
                l(4) =   1
     Q(r) pseudized with  8 coefficients,  rinner =    0.900   0.900   0.900


     PseudoPot. # 3 for H  read from file:
     /nfs/slac/g/suncatfs/aidank/scripts/gbrv/H.UPF
     MD5 check sum: 761ae9a214b05c3daf00ab9f6b793d6f
     Pseudo is Ultrasoft, Zval =  1.0
     Generated by new atomic code, or converted to UPF format
     Using radial grid of  615 points,  2 beta functions with: 
                l(1) =   0
                l(2) =   0
     Q(r) pseudized with  8 coefficients,  rinner =    0.700

     atomic species   valence    mass     pseudopotential
        Ag1           19.00   107.86800     Ag( 1.00)
        N1             5.00    14.00670     N ( 1.00)
        H1             1.00     1.00794     H ( 1.00)

     No symmetry found



   Cartesian axes

     site n.     atom                  positions (alat units)
         1           Ag1 tau(   1) = (   5.4594866   0.7084522   7.1205000  )
         2           Ag1 tau(   2) = (   2.5674199   0.7084522   7.1205000  )
         3           Ag1 tau(   3) = (   1.1213865   1.5433200   9.4818626  )
         4           Ag1 tau(   4) = (   4.0134533   1.5433200   9.4818626  )
         5           N1  tau(   5) = (   4.5606774   1.6360632  11.4499146  )
         6           H1  tau(   6) = (   4.3968948   1.9384689  12.3883470  )
         7           H1  tau(   7) = (   4.2775666   0.6688427  11.4796067  )
         8           H1  tau(   8) = (   2.9670548   2.1962977  11.0136489  )

     number of k points=     6  Fermi-Dirac smearing, width (Ry)=  0.0073
                       cart. coord. in units 2pi/alat
        k(    1) = (   0.0000000   0.0000000   0.0000000), wk =   0.2500000
        k(    2) = (   0.0000000   0.0998162   0.0000000), wk =   0.5000000
        k(    3) = (   0.0000000  -0.1996324   0.0000000), wk =   0.2500000
        k(    4) = (  -0.0864434   0.0499081   0.0000000), wk =   0.2500000
        k(    5) = (  -0.0864434   0.1497243   0.0000000), wk =   0.5000000
        k(    6) = (  -0.0864434  -0.1497243   0.0000000), wk =   0.2500000

     Dense  grid:   114205 G-vectors     FFT dimensions: (  54,  27, 180)

     Smooth grid:    40347 G-vectors     FFT dimensions: (  40,  20, 125)

     Largest allocated arrays     est. size (Mb)     dimensions
        Kohn-Sham Wavefunctions         0.49 Mb     (     450,   72)
        NL pseudopotentials             0.59 Mb     (     450,   86)
        Each V/rho on FFT grid          0.33 Mb     (   21870)
        Each G-vector array             0.07 Mb     (    9513)
        G-vector shells                 0.03 Mb     (    3999)
     Largest temporary arrays     est. size (Mb)     dimensions
        Auxiliary wavefunctions         1.98 Mb     (     450,  288)
        Each subspace H/S matrix        1.27 Mb     (     288,  288)
        Each <psi_i|beta_j> matrix      0.09 Mb     (      86,   72)
        Arrays for rho mixing           5.01 Mb     (   21870,   15)

     Initial potential from superposition of free atoms
     Check: negative starting charge=   -0.002415

     starting charge   81.99978, renormalised to   84.00000

     negative rho (up, down):  2.474E-03 0.000E+00
 
     Adding external electric field

     Computed dipole along edir(3) : 
        Dipole               -1.1855 Ry au,         -3.0131 Debye
        Dipole field         -0.0080 Ry au
 
        Potential amp.        0.5615 Ry
        Total length         35.2972 bohr
 
     Starting wfc are   59 randomized atomic wfcs +   13 random wfc

     total cpu time spent up to now is        1.0 secs

     per-process dynamical memory:    18.4 Mb

     Self-consistent Calculation

     iteration #  1     ecut=    29.40 Ry     beta=0.10
     Davidson diagonalization with overlap
     ethr =  1.00E-02,  avg # of iterations =  7.2

     negative rho (up, down):  1.096E-03 0.000E+00
 
     Adding external electric field

     Computed dipole along edir(3) : 
        Dipole                1.3585 Ry au,          3.4529 Debye
        Dipole field          0.0091 Ry au
 
        Potential amp.       -0.6435 Ry
        Total length         35.2972 bohr
 

     total cpu time spent up to now is        5.0 secs

     total energy              =   -1203.79146698 Ry
     Harris-Foulkes estimate   =   -1207.56767447 Ry
     estimated scf accuracy    <      21.54516166 Ry

     iteration #  2     ecut=    29.40 Ry     beta=0.10
     Davidson diagonalization with overlap
     ethr =  1.00E-02,  avg # of iterations =  3.5

     negative rho (up, down):  7.853E-04 0.000E+00
 
     Adding external electric field

     Computed dipole along edir(3) : 
        Dipole                0.0091 Ry au,          0.0232 Debye
        Dipole field          0.0001 Ry au
 
        Potential amp.       -0.0043 Ry
        Total length         35.2972 bohr
 

     total cpu time spent up to now is        6.9 secs

     total energy              =   -1205.06490955 Ry
     Harris-Foulkes estimate   =   -1207.26165587 Ry
     estimated scf accuracy    <      23.96338308 Ry

     iteration #  3     ecut=    29.40 Ry     beta=0.10
     Davidson diagonalization with overlap
     ethr =  1.00E-02,  avg # of iterations =  2.5

     negative rho (up, down):  8.359E-04 0.000E+00
 
     Adding external electric field

     Computed dipole along edir(3) : 
        Dipole                0.0284 Ry au,          0.0721 Debye
        Dipole field          0.0002 Ry au
 
        Potential amp.       -0.0134 Ry
        Total length         35.2972 bohr
 

     total cpu time spent up to now is        8.5 secs

     total energy              =   -1205.91224623 Ry
     Harris-Foulkes estimate   =   -1206.12956893 Ry
     estimated scf accuracy    <       1.17662787 Ry

     iteration #  4     ecut=    29.40 Ry     beta=0.10
     Davidson diagonalization with overlap
     ethr =  1.40E-03,  avg # of iterations =  2.5

     negative rho (up, down):  9.548E-04 0.000E+00
 
     Adding external electric field

     Computed dipole along edir(3) : 
        Dipole                0.2386 Ry au,          0.6064 Debye
        Dipole field          0.0016 Ry au
 
        Potential amp.       -0.1130 Ry
        Total length         35.2972 bohr
 

     total cpu time spent up to now is       10.0 secs

     total energy              =   -1205.72070587 Ry
     Harris-Foulkes estimate   =   -1205.94286161 Ry
     estimated scf accuracy    <       0.51372392 Ry

     iteration #  5     ecut=    29.40 Ry     beta=0.10
     Davidson diagonalization with overlap
     ethr =  6.12E-04,  avg # of iterations =  3.7

     negative rho (up, down):  9.944E-04 0.000E+00
 
     Adding external electric field

     Computed dipole along edir(3) : 
        Dipole                0.2116 Ry au,          0.5378 Debye
        Dipole field          0.0014 Ry au
 
        Potential amp.       -0.1002 Ry
        Total length         35.2972 bohr
 

     total cpu time spent up to now is       12.0 secs

     total energy              =   -1205.80863622 Ry
     Harris-Foulkes estimate   =   -1205.81175315 Ry
     estimated scf accuracy    <       0.03588451 Ry

     iteration #  6     ecut=    29.40 Ry     beta=0.10
     Davidson diagonalization with overlap
     ethr =  4.27E-05,  avg # of iterations =  4.7

     negative rho (up, down):  1.403E-03 0.000E+00
 
     Adding external electric field

     Computed dipole along edir(3) : 
        Dipole                0.2269 Ry au,          0.5767 Debye
        Dipole field          0.0015 Ry au
 
        Potential amp.       -0.1075 Ry
        Total length         35.2972 bohr
 

     total cpu time spent up to now is       13.9 secs

     total energy              =   -1205.80139065 Ry
     Harris-Foulkes estimate   =   -1205.80925960 Ry
     estimated scf accuracy    <       0.02283519 Ry

     iteration #  7     ecut=    29.40 Ry     beta=0.10
     Davidson diagonalization with overlap
     ethr =  2.72E-05,  avg # of iterations =  5.5

     negative rho (up, down):  1.452E-03 0.000E+00
 
     Adding external electric field

     Computed dipole along edir(3) : 
        Dipole                0.2295 Ry au,          0.5834 Debye
        Dipole field          0.0015 Ry au
 
        Potential amp.       -0.1087 Ry
        Total length         35.2972 bohr
 

     total cpu time spent up to now is       16.1 secs

     total energy              =   -1205.80322592 Ry
     Harris-Foulkes estimate   =   -1205.80390676 Ry
     estimated scf accuracy    <       0.00578862 Ry

     iteration #  8     ecut=    29.40 Ry     beta=0.10
     Davidson diagonalization with overlap
     ethr =  6.89E-06,  avg # of iterations =  2.8

     negative rho (up, down):  1.732E-03 0.000E+00
 
     Adding external electric field

     Computed dipole along edir(3) : 
        Dipole                0.1853 Ry au,          0.4709 Debye
        Dipole field          0.0012 Ry au
 
        Potential amp.       -0.0878 Ry
        Total length         35.2972 bohr
 

     total cpu time spent up to now is       17.7 secs

     total energy              =   -1205.80286580 Ry
     Harris-Foulkes estimate   =   -1205.80357341 Ry
     estimated scf accuracy    <       0.00242012 Ry

     iteration #  9     ecut=    29.40 Ry     beta=0.10
     Davidson diagonalization with overlap
     ethr =  2.88E-06,  avg # of iterations =  3.5

     negative rho (up, down):  1.933E-03 0.000E+00
 
     Adding external electric field

     Computed dipole along edir(3) : 
        Dipole                0.1693 Ry au,          0.4302 Debye
        Dipole field          0.0011 Ry au
 
        Potential amp.       -0.0802 Ry
        Total length         35.2972 bohr
 

     total cpu time spent up to now is       19.5 secs

     total energy              =   -1205.80313325 Ry
     Harris-Foulkes estimate   =   -1205.80322688 Ry
     estimated scf accuracy    <       0.00039401 Ry

     iteration # 10     ecut=    29.40 Ry     beta=0.10
     Davidson diagonalization with overlap
     ethr =  4.69E-07,  avg # of iterations =  2.8

     negative rho (up, down):  2.075E-03 0.000E+00
 
     Adding external electric field

     Computed dipole along edir(3) : 
        Dipole                0.1716 Ry au,          0.4362 Debye
        Dipole field          0.0012 Ry au
 
        Potential amp.       -0.0813 Ry
        Total length         35.2972 bohr
 

     total cpu time spent up to now is       21.1 secs

     total energy              =   -1205.80314956 Ry
     Harris-Foulkes estimate   =   -1205.80316381 Ry
     estimated scf accuracy    <       0.00020606 Ry

     iteration # 11     ecut=    29.40 Ry     beta=0.10
     Davidson diagonalization with overlap
     ethr =  2.45E-07,  avg # of iterations =  1.7

     negative rho (up, down):  2.210E-03 0.000E+00
 
     Adding external electric field

     Computed dipole along edir(3) : 
        Dipole                0.1696 Ry au,          0.4311 Debye
        Dipole field          0.0011 Ry au
 
        Potential amp.       -0.0803 Ry
        Total length         35.2972 bohr
 

     total cpu time spent up to now is       22.5 secs

     total energy              =   -1205.80316804 Ry
     Harris-Foulkes estimate   =   -1205.80317115 Ry
     estimated scf accuracy    <       0.00002198 Ry

     iteration # 12     ecut=    29.40 Ry     beta=0.10
     Davidson diagonalization with overlap
     ethr =  2.62E-08,  avg # of iterations =  2.0

     negative rho (up, down):  2.311E-03 0.000E+00
 
     Adding external electric field

     Computed dipole along edir(3) : 
        Dipole                0.1678 Ry au,          0.4266 Debye
        Dipole field          0.0011 Ry au
 
        Potential amp.       -0.0795 Ry
        Total length         35.2972 bohr
 

     total cpu time spent up to now is       24.0 secs

     total energy              =   -1205.80317243 Ry
     Harris-Foulkes estimate   =   -1205.80317441 Ry
     estimated scf accuracy    <       0.00001319 Ry

     iteration # 13     ecut=    29.40 Ry     beta=0.10
     Davidson diagonalization with overlap
     ethr =  1.57E-08,  avg # of iterations =  1.0

     negative rho (up, down):  2.337E-03 0.000E+00
 
     Adding external electric field

     Computed dipole along edir(3) : 
        Dipole                0.1672 Ry au,          0.4249 Debye
        Dipole field          0.0011 Ry au
 
        Potential amp.       -0.0792 Ry
        Total length         35.2972 bohr
 

     total cpu time spent up to now is       25.3 secs

     total energy              =   -1205.80317372 Ry
     Harris-Foulkes estimate   =   -1205.80317426 Ry
     estimated scf accuracy    <       0.00000262 Ry

     iteration # 14     ecut=    29.40 Ry     beta=0.10
     Davidson diagonalization with overlap
     ethr =  3.12E-09,  avg # of iterations =  2.0

     negative rho (up, down):  2.365E-03 0.000E+00
 
     Adding external electric field

     Computed dipole along edir(3) : 
        Dipole                0.1683 Ry au,          0.4279 Debye
        Dipole field          0.0011 Ry au
 
        Potential amp.       -0.0797 Ry
        Total length         35.2972 bohr
 

     total cpu time spent up to now is       26.8 secs

     End of self-consistent calculation

          k = 0.0000 0.0000 0.0000 (  5071 PWs)   bands (ev):

   -90.4990 -90.2325 -90.1686 -90.1197 -54.0049 -53.9730 -53.9148 -53.7575
   -53.6727 -53.6473 -53.6248 -53.6068 -53.6046 -53.5837 -53.5380 -53.5328
   -15.4933  -6.2381  -5.2875  -4.6059  -4.5055  -4.3721  -4.1462  -3.5270
    -3.1490  -2.9927  -2.9588  -2.8764  -2.8551  -2.7589  -2.6115  -2.1307
    -1.9740  -1.8320  -1.7588  -1.5313  -1.4955  -1.4437  -1.2180  -1.1176
    -0.3031   0.6933   1.4480   2.6649   3.4951   4.5812   5.3362   5.8215
     6.4553   6.6681   7.5715   8.0567   9.0884   9.3360   9.4878   9.9125
    10.5181  11.0476  11.1309  11.4172  11.6280  12.2779  12.6348  12.8231
    13.2012  13.8395  13.9644  14.5173  15.0764  15.1416  15.8274  16.5930

          k = 0.0000 0.0998 0.0000 (  5031 PWs)   bands (ev):

   -90.4961 -90.2293 -90.1661 -90.1170 -54.0003 -53.9658 -53.9542 -53.7394
   -53.7107 -53.6501 -53.6447 -53.6350 -53.6043 -53.5879 -53.5655 -53.5376
   -15.0831  -6.2875  -4.8497  -4.2586  -4.0908  -3.7951  -3.6917  -3.4284
    -3.3620  -3.2536  -2.9638  -2.8340  -2.7042  -2.5296  -2.4869  -2.3730
    -2.2773  -2.1750  -2.0225  -1.9063  -1.7536  -1.5388  -1.3955  -0.8779
    -0.7003   1.5445   2.1411   3.2522   4.9814   6.0148   6.5426   6.9530
     7.8994   8.1871   8.4020   8.7467   9.0718   9.4136   9.6914  10.6581
    10.6685  10.8910  11.1309  11.4829  12.0473  12.3475  12.4537  13.2783
    13.4735  13.6539  14.0849  14.4162  14.8709  15.0521  15.4142  15.5477

          k = 0.0000-0.1996 0.0000 (  5048 PWs)   bands (ev):

   -90.4932 -90.2263 -90.1633 -90.1143 -54.0026 -53.9934 -53.9608 -53.7612
   -53.7440 -53.6664 -53.6413 -53.6373 -53.6178 -53.5963 -53.5644 -53.5447
   -14.5929  -6.9198  -5.0559  -4.5815  -4.4201  -4.3605  -4.1126  -3.9149
    -3.7452  -3.3964  -2.9295  -2.7197  -2.5310  -2.1860  -1.8903  -1.6883
    -1.5951  -1.5721  -1.3118  -1.1727  -1.1152  -1.0953  -0.8665  -0.4660
     2.1462   2.4977   3.0415   3.3584   4.8157   5.9472   6.3364   6.5686
     8.0482   8.4189   8.9672   9.7543  10.1153  10.4398  10.7112  10.8888
    11.0633  11.1025  11.2387  11.2603  11.5098  12.2358  12.3503  12.4941
    12.5746  12.7061  13.0732  13.2378  13.5813  13.8028  14.2427  14.4538

          k =-0.0864 0.0499 0.0000 (  5024 PWs)   bands (ev):

   -90.4989 -90.2319 -90.1692 -90.1198 -54.0041 -53.9640 -53.9135 -53.7236
   -53.6683 -53.6611 -53.6451 -53.6148 -53.6083 -53.5876 -53.5365 -53.5324
   -15.4823  -6.1413  -5.0858  -4.1928  -3.9836  -3.8622  -3.7456  -3.4066
    -3.2455  -3.1948  -2.9866  -2.8985  -2.6223  -2.4585  -2.4144  -2.3546
    -2.2541  -2.1903  -2.1230  -2.0304  -1.9371  -1.7562  -1.4926  -1.4058
    -1.0542  -0.2761   1.4711   2.4201   3.6194   5.2918   5.9353   6.2073
     6.6664   6.8401   7.1669   7.8898   8.2884   8.5475   9.1824   9.7519
    10.5022  10.8950  11.2367  12.0111  12.2329  12.6751  13.8159  14.0172
    14.5411  14.7626  15.5382  15.8505  16.0589  16.4861  16.5363  17.1481

          k =-0.0864 0.1497 0.0000 (  5031 PWs)   bands (ev):

   -90.4961 -90.2293 -90.1661 -90.1170 -54.0003 -53.9638 -53.9563 -53.7378
   -53.7116 -53.6553 -53.6434 -53.6317 -53.6040 -53.5879 -53.5656 -53.5377
   -15.0832  -6.2864  -4.8406  -4.2676  -4.0069  -3.7541  -3.7025  -3.5470
    -3.3576  -3.2468  -2.9662  -2.8594  -2.6897  -2.5544  -2.4533  -2.3526
    -2.3369  -2.1703  -2.0747  -1.9139  -1.8225  -1.5150  -1.4300  -0.8627
    -0.5513   1.7122   2.0674   3.3475   4.8750   5.9715   6.5037   6.9032
     7.8095   8.1050   8.3508   8.7473   9.0148   9.4441   9.6451  10.5657
    10.6927  10.9943  11.1980  11.6541  12.0431  12.2910  12.5295  13.4224
    13.6074  13.7357  14.1623  14.4811  14.8480  15.1538  15.4273  15.5092

          k =-0.0864-0.1497 0.0000 (  5038 PWs)   bands (ev):

   -90.4932 -90.2263 -90.1633 -90.1143 -54.0010 -53.9923 -53.9558 -53.7500
   -53.7163 -53.6934 -53.6528 -53.6393 -53.6238 -53.5989 -53.5643 -53.5438
   -14.5995  -6.9220  -4.9820  -4.0598  -3.7800  -3.7050  -3.5489  -3.4932
    -3.4807  -3.3055  -2.9671  -2.9476  -2.7698  -2.7113  -2.5605  -2.5027
    -2.3145  -2.1196  -1.8295  -1.6917  -1.4559  -1.2660  -0.7038  -0.3856
     1.6913   2.0146   3.3211   4.3938   5.5595   7.6593   8.1162   8.2111
     8.3535   8.5051   8.8720   9.1559   9.5518   9.6118   9.8718  10.0179
    10.5393  10.8208  11.0130  11.4292  11.8511  11.9501  12.3401  12.4766
    12.9382  13.6135  13.6940  13.7586  14.2645  14.5704  14.7908  14.8620

     the Fermi energy is     1.9564 ev

!    total energy              =   -1205.80318036 Ry
     Harris-Foulkes estimate   =   -1205.80317143 Ry
     estimated scf accuracy    <       0.00000034 Ry

     The total energy is the sum of the following terms:

     one-electron contribution =   -6044.62626052 Ry
     hartree contribution      =    3020.31995891 Ry
     xc contribution           =    -123.30842126 Ry
     ewald contribution        =    1941.81887241 Ry
     electric field correction =       0.00019012 Ry
     smearing contrib. (-TS)   =      -0.00752002 Ry

     convergence has been achieved in  14 iterations

     Forces acting on atoms (Ry/au):


     negative rho (up, down):  2.365E-03 0.000E+00
     atom    1 type  1   force =    -0.00229234    0.00216848   -0.00909155
     atom    2 type  1   force =     0.00307053   -0.00161963   -0.01220642
     atom    3 type  1   force =     0.00593648   -0.00879925    0.02697268
     atom    4 type  1   force =    -0.02965685    0.02133625   -0.08391914
     atom    5 type  2   force =     0.00831421    0.00775560    0.02973893
     atom    6 type  3   force =    -0.01114207    0.03828127    0.04902540
     atom    7 type  3   force =     0.00284909   -0.05444048    0.02147624
     atom    8 type  3   force =     0.02292096   -0.00468224   -0.02199614

     Total force =     0.137630     Total SCF correction =     0.003414
 !ASE
     Check: negative starting charge=   -0.002415
     NEW-OLD atomic charge density approx. for the potential
     Check: negative starting charge=   -0.002379

     negative rho (up, down):  2.334E-03 0.000E+00
 
     Adding external electric field

     Computed dipole along edir(3) : 
        Dipole                0.1683 Ry au,          0.4279 Debye
        Dipole field          0.0011 Ry au
 
        Potential amp.       -0.0797 Ry
        Total length         35.2972 bohr
 

     total cpu time spent up to now is       28.0 secs

     per-process dynamical memory:    31.3 Mb

     Self-consistent Calculation

     iteration #  1     ecut=    29.40 Ry     beta=0.10
     Davidson diagonalization with overlap
     ethr =  3.12E-09,  avg # of iterations =  6.3

     negative rho (up, down):  2.318E-03 0.000E+00
 
     Adding external electric field

     Computed dipole along edir(3) : 
        Dipole                0.2298 Ry au,          0.5842 Debye
        Dipole field          0.0015 Ry au
 
        Potential amp.       -0.1089 Ry
        Total length         35.2972 bohr
 

     total cpu time spent up to now is       31.4 secs

     total energy              =   -1205.80506837 Ry
     Harris-Foulkes estimate   =   -1205.81435120 Ry
     estimated scf accuracy    <       0.06015402 Ry

     iteration #  2     ecut=    29.40 Ry     beta=0.10
     Davidson diagonalization with overlap
     ethr =  7.16E-05,  avg # of iterations =  2.2

     negative rho (up, down):  2.309E-03 0.000E+00
 
     Adding external electric field

     Computed dipole along edir(3) : 
        Dipole                0.1609 Ry au,          0.4089 Debye
        Dipole field          0.0011 Ry au
 
        Potential amp.       -0.0762 Ry
        Total length         35.2972 bohr
 

     total cpu time spent up to now is       32.9 secs

     total energy              =   -1205.80616031 Ry
     Harris-Foulkes estimate   =   -1205.80996843 Ry
     estimated scf accuracy    <       0.03496455 Ry

     iteration #  3     ecut=    29.40 Ry     beta=0.10
     Davidson diagonalization with overlap
     ethr =  4.16E-05,  avg # of iterations =  2.8

     negative rho (up, down):  2.309E-03 0.000E+00
 
     Adding external electric field

     Computed dipole along edir(3) : 
        Dipole                0.1293 Ry au,          0.3287 Debye
        Dipole field          0.0009 Ry au
 
        Potential amp.       -0.0612 Ry
        Total length         35.2972 bohr
 

     total cpu time spent up to now is       34.6 secs

     total energy              =   -1205.80428466 Ry
     Harris-Foulkes estimate   =   -1205.80763561 Ry
     estimated scf accuracy    <       0.01244351 Ry

     iteration #  4     ecut=    29.40 Ry     beta=0.10
     Davidson diagonalization with overlap
     ethr =  1.48E-05,  avg # of iterations =  3.8

     negative rho (up, down):  2.349E-03 0.000E+00
 
     Adding external electric field

     Computed dipole along edir(3) : 
        Dipole                0.1258 Ry au,          0.3197 Debye
        Dipole field          0.0008 Ry au
 
        Potential amp.       -0.0596 Ry
        Total length         35.2972 bohr
 

     total cpu time spent up to now is       36.4 secs

     total energy              =   -1205.80494223 Ry
     Harris-Foulkes estimate   =   -1205.80535256 Ry
     estimated scf accuracy    <       0.00257026 Ry

     iteration #  5     ecut=    29.40 Ry     beta=0.10
     Davidson diagonalization with overlap
     ethr =  3.06E-06,  avg # of iterations =  3.8

     negative rho (up, down):  2.490E-03 0.000E+00
 
     Adding external electric field

     Computed dipole along edir(3) : 
        Dipole                0.1298 Ry au,          0.3298 Debye
        Dipole field          0.0009 Ry au
 
        Potential amp.       -0.0615 Ry
        Total length         35.2972 bohr
 

     total cpu time spent up to now is       38.2 secs

     total energy              =   -1205.80495808 Ry
     Harris-Foulkes estimate   =   -1205.80507794 Ry
     estimated scf accuracy    <       0.00098231 Ry

     iteration #  6     ecut=    29.40 Ry     beta=0.10
     Davidson diagonalization with overlap
     ethr =  1.17E-06,  avg # of iterations =  2.8

     negative rho (up, down):  2.478E-03 0.000E+00
 
     Adding external electric field

     Computed dipole along edir(3) : 
        Dipole                0.1384 Ry au,          0.3518 Debye
        Dipole field          0.0009 Ry au
 
        Potential amp.       -0.0656 Ry
        Total length         35.2972 bohr
 

     total cpu time spent up to now is       39.8 secs

     total energy              =   -1205.80502745 Ry
     Harris-Foulkes estimate   =   -1205.80505695 Ry
     estimated scf accuracy    <       0.00047897 Ry

     iteration #  7     ecut=    29.40 Ry     beta=0.10
     Davidson diagonalization with overlap
     ethr =  5.70E-07,  avg # of iterations =  2.7

     negative rho (up, down):  2.495E-03 0.000E+00
 
     Adding external electric field

     Computed dipole along edir(3) : 
        Dipole                0.1469 Ry au,          0.3733 Debye
        Dipole field          0.0010 Ry au
 
        Potential amp.       -0.0696 Ry
        Total length         35.2972 bohr
 

     total cpu time spent up to now is       41.4 secs

     total energy              =   -1205.80504899 Ry
     Harris-Foulkes estimate   =   -1205.80503633 Ry
     estimated scf accuracy    <       0.00005520 Ry

     iteration #  8     ecut=    29.40 Ry     beta=0.10
     Davidson diagonalization with overlap
     ethr =  6.57E-08,  avg # of iterations =  3.0

     negative rho (up, down):  2.467E-03 0.000E+00
 
     Adding external electric field

     Computed dipole along edir(3) : 
        Dipole                0.1464 Ry au,          0.3722 Debye
        Dipole field          0.0010 Ry au
 
        Potential amp.       -0.0694 Ry
        Total length         35.2972 bohr
 

     total cpu time spent up to now is       43.1 secs

     total energy              =   -1205.80505600 Ry
     Harris-Foulkes estimate   =   -1205.80505569 Ry
     estimated scf accuracy    <       0.00000729 Ry

     iteration #  9     ecut=    29.40 Ry     beta=0.10
     Davidson diagonalization with overlap
     ethr =  8.68E-09,  avg # of iterations =  1.0

     negative rho (up, down):  2.447E-03 0.000E+00
 
     Adding external electric field

     Computed dipole along edir(3) : 
        Dipole                0.1474 Ry au,          0.3746 Debye
        Dipole field          0.0010 Ry au
 
        Potential amp.       -0.0698 Ry
        Total length         35.2972 bohr
 

     total cpu time spent up to now is       44.4 secs

     total energy              =   -1205.80505698 Ry
     Harris-Foulkes estimate   =   -1205.80505439 Ry
     estimated scf accuracy    <       0.00000398 Ry

     iteration # 10     ecut=    29.40 Ry     beta=0.10
     Davidson diagonalization with overlap
     ethr =  4.73E-09,  avg # of iterations =  2.0

     negative rho (up, down):  2.329E-03 0.000E+00
 
     Adding external electric field

     Computed dipole along edir(3) : 
        Dipole                0.1440 Ry au,          0.3660 Debye
        Dipole field          0.0010 Ry au
 
        Potential amp.       -0.0682 Ry
        Total length         35.2972 bohr
 

     total cpu time spent up to now is       45.9 secs

     End of self-consistent calculation

          k = 0.0000 0.0000 0.0000 (  5071 PWs)   bands (ev):

   -90.5643 -90.2974 -90.2413 -90.1956 -54.0674 -54.0324 -53.9772 -53.8247
   -53.7400 -53.7113 -53.6950 -53.6815 -53.6788 -53.6558 -53.6115 -53.6079
   -14.5311  -5.8372  -5.1853  -4.6278  -4.5739  -4.4167  -4.1924  -3.4983
    -3.0714  -3.0420  -3.0033  -2.9407  -2.9200  -2.8172  -2.6659  -2.1351
    -2.0469  -1.8443  -1.7942  -1.5887  -1.5262  -1.4843  -1.2886  -1.1873
     0.1470   0.5640   1.4602   2.5870   3.3496   4.6110   5.3450   5.7829
     6.4032   6.6928   7.3123   7.8769   8.1025   9.0027   9.3346   9.7703
    10.5126  10.9847  11.1278  11.4224  11.5764  12.2541  12.6089  12.8101
    13.1604  13.7285  13.9632  14.3715  14.9465  15.1273  15.7767  16.4374

          k = 0.0000 0.0998 0.0000 (  5031 PWs)   bands (ev):

   -90.5614 -90.2942 -90.2388 -90.1929 -54.0617 -54.0248 -54.0179 -53.8064
   -53.7772 -53.7241 -53.7119 -53.7040 -53.6790 -53.6618 -53.6398 -53.6093
   -14.0403  -5.6580  -4.7865  -4.1559  -4.1199  -3.8466  -3.7507  -3.4872
    -3.4130  -3.2889  -3.0340  -2.8928  -2.7665  -2.5939  -2.5434  -2.4308
    -2.3151  -2.2455  -2.0773  -1.9725  -1.7828  -1.6020  -1.4547  -0.9943
    -0.7217   1.4557   2.0137   3.3178   4.8588   5.9884   6.5368   6.9383
     7.7823   8.1271   8.3058   8.6841   8.9947   9.4032   9.6673  10.4043
    10.6072  10.6944  11.0387  11.1791  11.8526  12.0516  12.3906  13.0900
    13.3267  13.5877  13.9863  14.2666  14.7912  14.9830  15.4170  15.5434

          k = 0.0000-0.1996 0.0000 (  5048 PWs)   bands (ev):

   -90.5585 -90.2912 -90.2360 -90.1901 -54.0651 -54.0546 -54.0214 -53.8285
   -53.8126 -53.7370 -53.7133 -53.7023 -53.6938 -53.6719 -53.6355 -53.6166
   -13.4236  -6.4496  -4.8341  -4.6343  -4.4845  -4.4135  -4.1738  -3.9750
    -3.7483  -3.4264  -2.9538  -2.7955  -2.6001  -2.2282  -1.9604  -1.7540
    -1.6618  -1.6414  -1.3808  -1.2435  -1.1880  -1.1670  -0.9953  -0.5059
     2.0421   2.4116   2.9626   3.2740   4.7954   5.8533   6.2692   6.5070
     7.9536   8.2911   8.5374   9.7732  10.0782  10.3888  10.6701  10.8512
    11.0356  11.0958  11.2296  11.2962  11.5069  12.1651  12.2705  12.4327
    12.5427  12.6865  13.0091  13.1278  13.4931  13.7669  14.1998  14.3869

          k =-0.0864 0.0499 0.0000 (  5024 PWs)   bands (ev):

   -90.5642 -90.2969 -90.2419 -90.1956 -54.0636 -54.0263 -53.9759 -53.7886
   -53.7351 -53.7336 -53.7102 -53.6887 -53.6829 -53.6595 -53.6110 -53.6063
   -14.5170  -5.5581  -5.0785  -4.2413  -4.0581  -3.9292  -3.8050  -3.4664
    -3.2871  -3.2245  -3.0476  -2.7993  -2.6650  -2.5199  -2.4851  -2.4148
    -2.3265  -2.2456  -2.1842  -2.0455  -1.9894  -1.7414  -1.4804  -1.4769
    -1.1025   0.0854   1.4002   2.2072   3.7279   5.0871   5.9070   6.2208
     6.6767   6.8407   7.1352   7.7654   8.0087   8.2633   8.9601   9.1595
    10.5089  10.8725  11.1748  11.9075  12.1548  12.5383  13.7700  14.0174
    14.4907  14.6038  15.3977  15.5153  15.9247  16.3226  16.4518  17.0031

          k =-0.0864 0.1497 0.0000 (  5031 PWs)   bands (ev):

   -90.5614 -90.2942 -90.2388 -90.1929 -54.0612 -54.0258 -54.0176 -53.8046
   -53.7783 -53.7290 -53.7092 -53.7024 -53.6787 -53.6619 -53.6399 -53.6093
   -14.0402  -5.6673  -4.7950  -4.1998  -4.0033  -3.7837  -3.7326  -3.6011
    -3.4056  -3.2931  -3.0293  -2.9156  -2.7394  -2.6143  -2.5232  -2.4052
    -2.3500  -2.2358  -2.1336  -1.9839  -1.8845  -1.5839  -1.4901  -0.9128
    -0.6711   1.6144   1.9499   3.4049   4.7621   5.9521   6.5046   6.8723
     7.6750   8.0718   8.2876   8.6627   8.9249   9.3765   9.6452  10.4170
    10.6191  10.8827  11.0478  11.2948  11.8801  12.1317  12.3285  13.1472
    13.4877  13.6991  14.1178  14.3419  14.7435  15.0343  15.4165  15.4799

          k =-0.0864-0.1497 0.0000 (  5038 PWs)   bands (ev):

   -90.5585 -90.2912 -90.2360 -90.1901 -54.0629 -54.0524 -54.0179 -53.8166
   -53.7814 -53.7680 -53.7254 -53.7045 -53.6999 -53.6741 -53.6353 -53.6158
   -13.4319  -6.4549  -4.6741  -4.1193  -3.8495  -3.7708  -3.6180  -3.5653
    -3.5582  -3.3441  -3.0373  -2.9797  -2.8384  -2.7786  -2.6216  -2.5677
    -2.3671  -2.1814  -1.8937  -1.7542  -1.5256  -1.3371  -0.8759  -0.3615
     1.6372   1.9229   3.3311   4.3144   5.4903   7.5986   7.8720   8.0857
     8.2371   8.4300   8.8360   9.1147   9.5363   9.5719   9.7713   9.8631
    10.4640  10.7747  10.9567  11.3316  11.6176  11.8858  12.2393  12.2968
    12.8508  13.5126  13.5603  13.6915  14.2435  14.5571  14.7293  14.7487

     the Fermi energy is     1.8500 ev

!    total energy              =   -1205.80506284 Ry
     Harris-Foulkes estimate   =   -1205.80506407 Ry
     estimated scf accuracy    <       0.00000074 Ry

     The total energy is the sum of the following terms:

     one-electron contribution =   -6019.35747918 Ry
     hartree contribution      =    3007.54729771 Ry
     xc contribution           =    -123.12712035 Ry
     ewald contribution        =    1929.14036107 Ry
     electric field correction =       0.00013914 Ry
     smearing contrib. (-TS)   =      -0.00826122 Ry

     convergence has been achieved in  10 iterations

     Forces acting on atoms (Ry/au):


     negative rho (up, down):  2.329E-03 0.000E+00
     atom    1 type  1   force =    -0.00231342    0.00223004   -0.00848088
     atom    2 type  1   force =     0.00293461   -0.00179630   -0.01447247
     atom    3 type  1   force =     0.00558290   -0.00819670    0.02498478
     atom    4 type  1   force =    -0.01962874    0.01600247   -0.05090765
     atom    5 type  2   force =    -0.04622819   -0.08616551    0.09408139
     atom    6 type  3   force =     0.00013683   -0.02042024   -0.06081840
     atom    7 type  3   force =     0.03609521    0.10120972    0.02485590
     atom    8 type  3   force =     0.02342080   -0.00286348   -0.00924267

     Total force =     0.198983     Total SCF correction =     0.003881
 !ASE
     Check: negative starting charge=   -0.002379
     NEW-OLD atomic charge density approx. for the potential
     Check: negative starting charge=   -0.002401

     negative rho (up, down):  2.407E-03 0.000E+00
 
     Adding external electric field

     Computed dipole along edir(3) : 
        Dipole                0.1440 Ry au,          0.3660 Debye
        Dipole field          0.0010 Ry au
 
        Potential amp.       -0.0682 Ry
        Total length         35.2972 bohr
 

     total cpu time spent up to now is       47.1 secs

     per-process dynamical memory:    31.3 Mb

     Self-consistent Calculation

     iteration #  1     ecut=    29.40 Ry     beta=0.10
     Davidson diagonalization with overlap
     ethr =  4.73E-09,  avg # of iterations =  6.2

     negative rho (up, down):  2.401E-03 0.000E+00
 
     Adding external electric field

     Computed dipole along edir(3) : 
        Dipole                0.1209 Ry au,          0.3074 Debye
        Dipole field          0.0008 Ry au
 
        Potential amp.       -0.0573 Ry
        Total length         35.2972 bohr
 

     total cpu time spent up to now is       50.4 secs

     total energy              =   -1205.81368184 Ry
     Harris-Foulkes estimate   =   -1205.81542266 Ry
     estimated scf accuracy    <       0.01128001 Ry

     iteration #  2     ecut=    29.40 Ry     beta=0.10
     Davidson diagonalization with overlap
     ethr =  1.34E-05,  avg # of iterations =  2.3

     negative rho (up, down):  2.397E-03 0.000E+00
 
     Adding external electric field

     Computed dipole along edir(3) : 
        Dipole                0.1496 Ry au,          0.3803 Debye
        Dipole field          0.0010 Ry au
 
        Potential amp.       -0.0709 Ry
        Total length         35.2972 bohr
 

     total cpu time spent up to now is       51.9 secs

     total energy              =   -1205.81376205 Ry
     Harris-Foulkes estimate   =   -1205.81435659 Ry
     estimated scf accuracy    <       0.00621642 Ry

     iteration #  3     ecut=    29.40 Ry     beta=0.10
     Davidson diagonalization with overlap
     ethr =  7.40E-06,  avg # of iterations =  3.2

     negative rho (up, down):  2.392E-03 0.000E+00
 
     Adding external electric field

     Computed dipole along edir(3) : 
        Dipole                0.1636 Ry au,          0.4159 Debye
        Dipole field          0.0011 Ry au
 
        Potential amp.       -0.0775 Ry
        Total length         35.2972 bohr
 

     total cpu time spent up to now is       53.6 secs

     total energy              =   -1205.81328796 Ry
     Harris-Foulkes estimate   =   -1205.81396861 Ry
     estimated scf accuracy    <       0.00275625 Ry

     iteration #  4     ecut=    29.40 Ry     beta=0.10
     Davidson diagonalization with overlap
     ethr =  3.28E-06,  avg # of iterations =  3.5

     negative rho (up, down):  2.392E-03 0.000E+00
 
     Adding external electric field

     Computed dipole along edir(3) : 
        Dipole                0.1677 Ry au,          0.4262 Debye
        Dipole field          0.0011 Ry au
 
        Potential amp.       -0.0794 Ry
        Total length         35.2972 bohr
 

     total cpu time spent up to now is       55.4 secs

     total energy              =   -1205.81346019 Ry
     Harris-Foulkes estimate   =   -1205.81352858 Ry
     estimated scf accuracy    <       0.00058775 Ry

     iteration #  5     ecut=    29.40 Ry     beta=0.10
     Davidson diagonalization with overlap
     ethr =  7.00E-07,  avg # of iterations =  2.8

     negative rho (up, down):  2.402E-03 0.000E+00
 
     Adding external electric field

     Computed dipole along edir(3) : 
        Dipole                0.1640 Ry au,          0.4168 Debye
        Dipole field          0.0011 Ry au
 
        Potential amp.       -0.0777 Ry
        Total length         35.2972 bohr
 

     total cpu time spent up to now is       57.0 secs

     total energy              =   -1205.81347963 Ry
     Harris-Foulkes estimate   =   -1205.81350023 Ry
     estimated scf accuracy    <       0.00019518 Ry

     iteration #  6     ecut=    29.40 Ry     beta=0.10
     Davidson diagonalization with overlap
     ethr =  2.32E-07,  avg # of iterations =  2.0

     negative rho (up, down):  2.400E-03 0.000E+00
 
     Adding external electric field

     Computed dipole along edir(3) : 
        Dipole                0.1624 Ry au,          0.4127 Debye
        Dipole field          0.0011 Ry au
 
        Potential amp.       -0.0769 Ry
        Total length         35.2972 bohr
 

     total cpu time spent up to now is       58.4 secs

     total energy              =   -1205.81349139 Ry
     Harris-Foulkes estimate   =   -1205.81349615 Ry
     estimated scf accuracy    <       0.00004426 Ry

     iteration #  7     ecut=    29.40 Ry     beta=0.10
     Davidson diagonalization with overlap
     ethr =  5.27E-08,  avg # of iterations =  2.0

     negative rho (up, down):  2.395E-03 0.000E+00
 
     Adding external electric field

     Computed dipole along edir(3) : 
        Dipole                0.1587 Ry au,          0.4035 Debye
        Dipole field          0.0011 Ry au
 
        Potential amp.       -0.0752 Ry
        Total length         35.2972 bohr
 

     total cpu time spent up to now is       59.9 secs

     total energy              =   -1205.81349350 Ry
     Harris-Foulkes estimate   =   -1205.81350342 Ry
     estimated scf accuracy    <       0.00001473 Ry

     iteration #  8     ecut=    29.40 Ry     beta=0.10
     Davidson diagonalization with overlap
     ethr =  1.75E-08,  avg # of iterations =  2.0

     negative rho (up, down):  2.387E-03 0.000E+00
 
     Adding external electric field

     Computed dipole along edir(3) : 
        Dipole                0.1587 Ry au,          0.4033 Debye
        Dipole field          0.0011 Ry au
 
        Potential amp.       -0.0751 Ry
        Total length         35.2972 bohr
 

     total cpu time spent up to now is       61.4 secs

     total energy              =   -1205.81349527 Ry
     Harris-Foulkes estimate   =   -1205.81349525 Ry
     estimated scf accuracy    <       0.00000148 Ry

     iteration #  9     ecut=    29.40 Ry     beta=0.10
     Davidson diagonalization with overlap
     ethr =  1.76E-09,  avg # of iterations =  2.0

     negative rho (up, down):  2.344E-03 0.000E+00
 
     Adding external electric field

     Computed dipole along edir(3) : 
        Dipole                0.1585 Ry au,          0.4030 Debye
        Dipole field          0.0011 Ry au
 
        Potential amp.       -0.0751 Ry
        Total length         35.2972 bohr
 

     total cpu time spent up to now is       62.8 secs

     End of self-consistent calculation

          k = 0.0000 0.0000 0.0000 (  5071 PWs)   bands (ev):

   -90.5257 -90.2621 -90.2026 -90.1532 -54.0258 -54.0006 -53.9405 -53.7882
   -53.7033 -53.6763 -53.6573 -53.6403 -53.6389 -53.6165 -53.5703 -53.5665
   -14.9903  -6.0083  -5.2532  -4.6094  -4.5375  -4.3906  -4.1656  -3.4978
    -3.0797  -3.0204  -2.9881  -2.9055  -2.8864  -2.7865  -2.6350  -2.1254
    -2.0064  -1.8350  -1.7731  -1.5540  -1.5038  -1.4698  -1.2490  -1.1492
    -0.1071   0.6316   1.4567   2.6303   3.4293   4.5958   5.3432   5.8034
     6.4316   6.6876   7.4702   8.0190   8.6189   9.1539   9.3648   9.8406
    10.5104  11.0203  11.1290  11.4125  11.5960  12.2661  12.6220  12.8178
    13.1839  13.7872  13.9643  14.4434  15.0297  15.1130  15.8050  16.5251

          k = 0.0000 0.0998 0.0000 (  5031 PWs)   bands (ev):

   -90.5227 -90.2588 -90.2001 -90.1505 -54.0211 -53.9924 -53.9809 -53.7700
   -53.7409 -53.6844 -53.6751 -53.6669 -53.6378 -53.6212 -53.5988 -53.5696
   -14.5380  -5.9772  -4.7941  -4.2015  -4.1062  -3.8189  -3.7189  -3.4551
    -3.3849  -3.2688  -2.9956  -2.8599  -2.7324  -2.5583  -2.5107  -2.3987
    -2.2944  -2.2062  -2.0472  -1.9360  -1.7659  -1.5669  -1.4219  -0.9300
    -0.7102   1.5028   2.0813   3.2880   4.9272   6.0060   6.5391   6.9490
     7.8527   8.1567   8.3592   8.7232   9.0387   9.4063   9.6842  10.6259
    10.6370  10.7811  11.1086  11.2939  11.9686  12.1723  12.4179  13.2074
    13.3851  13.6055  14.0319  14.3329  14.8337  15.0139  15.4133  15.5452

          k = 0.0000-0.1996 0.0000 (  5048 PWs)   bands (ev):

   -90.5199 -90.2558 -90.1973 -90.1478 -54.0278 -54.0145 -53.9888 -53.7918
   -53.7754 -53.6990 -53.6747 -53.6666 -53.6516 -53.6301 -53.5973 -53.5763
   -13.9834  -6.6927  -4.9178  -4.6151  -4.4490  -4.3831  -4.1405  -3.9407
    -3.7441  -3.4097  -2.9408  -2.7532  -2.5618  -2.2048  -1.9216  -1.7176
    -1.6249  -1.6035  -1.3415  -1.2045  -1.1485  -1.1272  -0.9246  -0.4901
     2.0972   2.4579   3.0053   3.3195   4.8153   5.9067   6.3059   6.5449
     8.0257   8.3669   8.7451   9.7712  10.0970  10.4206  10.6900  10.8735
    11.0553  11.0975  11.2362  11.2752  11.5073  12.2093  12.3184  12.4795
    12.5541  12.6983  13.0596  13.1839  13.5382  13.7869  14.2247  14.4194

          k =-0.0864 0.0499 0.0000 (  5024 PWs)   bands (ev):

   -90.5256 -90.2615 -90.2032 -90.1533 -54.0240 -53.9924 -53.9393 -53.7531
   -53.6986 -53.6949 -53.6743 -53.6480 -53.6429 -53.6204 -53.5692 -53.5657
   -14.9777  -5.8476  -5.0720  -4.2129  -4.0162  -3.8926  -3.7714  -3.4312
    -3.2522  -3.2073  -3.0123  -2.8352  -2.6412  -2.4857  -2.4455  -2.3810
    -2.2862  -2.2128  -2.1487  -2.0277  -1.9621  -1.7458  -1.4868  -1.4383
    -1.0762  -0.1310   1.4374   2.3196   3.6795   5.2079   5.9293   6.2101
     6.6697   6.8436   7.1541   7.8843   8.2567   8.3717   9.0980   9.3034
    10.5051  10.8827  11.2039  11.9635  12.1973  12.6060  13.7965  14.0164
    14.5197  14.6881  15.4925  15.6685  15.9883  16.4023  16.4957  17.0826

          k =-0.0864 0.1497 0.0000 (  5031 PWs)   bands (ev):

   -90.5227 -90.2588 -90.2001 -90.1505 -54.0207 -53.9922 -53.9816 -53.7683
   -53.7419 -53.6896 -53.6731 -53.6644 -53.6375 -53.6212 -53.5989 -53.5696
   -14.5380  -5.9793  -4.7963  -4.2231  -4.0041  -3.7612  -3.7268  -3.5716
    -3.3784  -3.2681  -2.9946  -2.8841  -2.7115  -2.5811  -2.4843  -2.3703
    -2.3491  -2.1996  -2.1017  -1.9454  -1.8498  -1.5455  -1.4571  -0.8833
    -0.6076   1.6666   2.0123   3.3800   4.8256   5.9653   6.5048   6.8915
     7.7515   8.0873   8.3238   8.7129   8.9747   9.4159   9.6458  10.5185
    10.6681  10.9497  11.1522  11.4796  11.9683  12.2209  12.4051  13.2901
    13.5200  13.7115  14.1376  14.4069  14.7929  15.0934  15.4218  15.4905

          k =-0.0864-0.1497 0.0000 (  5038 PWs)   bands (ev):

   -90.5199 -90.2559 -90.1973 -90.1478 -54.0257 -54.0133 -53.9842 -53.7802
   -53.7459 -53.7280 -53.6866 -53.6686 -53.6576 -53.6325 -53.5971 -53.5755
   -13.9909  -6.6962  -4.8148  -4.0841  -3.8108  -3.7342  -3.5800  -3.5259
    -3.5148  -3.3243  -2.9976  -2.9597  -2.8010  -2.7417  -2.5881  -2.5320
    -2.3378  -2.1471  -1.8583  -1.7197  -1.4873  -1.2978  -0.7865  -0.3743
     1.6679   1.9721   3.3303   4.3575   5.5285   7.6541   8.0159   8.1446
     8.2965   8.4705   8.8536   9.1418   9.5438   9.5994   9.8670   9.9067
    10.5023  10.7991  10.9873  11.3821  11.7406  11.9294  12.3203  12.3627
    12.8956  13.5733  13.6351  13.7115  14.2554  14.5628  14.7804  14.8267

     the Fermi energy is     1.9067 ev

!    total energy              =   -1205.81349717 Ry
     Harris-Foulkes estimate   =   -1205.81349563 Ry
     estimated scf accuracy    <       0.00000036 Ry

     The total energy is the sum of the following terms:

     one-electron contribution =   -6032.25714677 Ry
     hartree contribution      =    3014.08202817 Ry
     xc contribution           =    -123.21517386 Ry
     ewald contribution        =    1935.58447675 Ry
     electric field correction =       0.00016864 Ry
     smearing contrib. (-TS)   =      -0.00785011 Ry

     convergence has been achieved in   9 iterations

     Forces acting on atoms (Ry/au):


     negative rho (up, down):  2.344E-03 0.000E+00
     atom    1 type  1   force =    -0.00219019    0.00209098   -0.00882358
     atom    2 type  1   force =     0.00285319   -0.00160309   -0.01334507
     atom    3 type  1   force =     0.00578017   -0.00855060    0.02611363
     atom    4 type  1   force =    -0.02454059    0.01891968   -0.06617414
     atom    5 type  2   force =    -0.02664276   -0.06073724    0.06718171
     atom    6 type  3   force =    -0.00586455    0.00738180   -0.01206451
     atom    7 type  3   force =     0.02721264    0.04655217    0.02328454
     atom    8 type  3   force =     0.02339209   -0.00405370   -0.01617258

     Total force =     0.140802     Total SCF correction =     0.002090
 !ASE
     Check: negative starting charge=   -0.002401
     NEW-OLD atomic charge density approx. for the potential
     Check: negative starting charge=   -0.002356

     negative rho (up, down):  2.308E-03 0.000E+00
 
     Adding external electric field

     Computed dipole along edir(3) : 
        Dipole                0.1585 Ry au,          0.4030 Debye
        Dipole field          0.0011 Ry au
 
        Potential amp.       -0.0751 Ry
        Total length         35.2972 bohr
 

     total cpu time spent up to now is       64.0 secs

     per-process dynamical memory:    31.3 Mb

     Self-consistent Calculation

     iteration #  1     ecut=    29.40 Ry     beta=0.10
     Davidson diagonalization with overlap
     ethr =  1.76E-09,  avg # of iterations =  8.8

     negative rho (up, down):  2.299E-03 0.000E+00
 
     Adding external electric field

     Computed dipole along edir(3) : 
        Dipole                0.0781 Ry au,          0.1985 Debye
        Dipole field          0.0005 Ry au
 
        Potential amp.       -0.0370 Ry
        Total length         35.2972 bohr
 

     total cpu time spent up to now is       68.1 secs

     total energy              =   -1205.83103019 Ry
     Harris-Foulkes estimate   =   -1205.83548931 Ry
     estimated scf accuracy    <       0.03243900 Ry

     iteration #  2     ecut=    29.40 Ry     beta=0.10
     Davidson diagonalization with overlap
     ethr =  3.86E-05,  avg # of iterations =  3.0

     negative rho (up, down):  2.294E-03 0.000E+00
 
     Adding external electric field

     Computed dipole along edir(3) : 
        Dipole                0.1102 Ry au,          0.2802 Debye
        Dipole field          0.0007 Ry au
 
        Potential amp.       -0.0522 Ry
        Total length         35.2972 bohr
 

     total cpu time spent up to now is       69.8 secs

     total energy              =   -1205.83155474 Ry
     Harris-Foulkes estimate   =   -1205.83317151 Ry
     estimated scf accuracy    <       0.02035780 Ry

     iteration #  3     ecut=    29.40 Ry     beta=0.10
     Davidson diagonalization with overlap
     ethr =  2.42E-05,  avg # of iterations =  2.2

     negative rho (up, down):  2.343E-03 0.000E+00
 
     Adding external electric field

     Computed dipole along edir(3) : 
        Dipole                0.0810 Ry au,          0.2058 Debye
        Dipole field          0.0005 Ry au
 
        Potential amp.       -0.0384 Ry
        Total length         35.2972 bohr
 

     total cpu time spent up to now is       71.3 secs

     total energy              =   -1205.82975703 Ry
     Harris-Foulkes estimate   =   -1205.83218806 Ry
     estimated scf accuracy    <       0.01031040 Ry

     iteration #  4     ecut=    29.40 Ry     beta=0.10
     Davidson diagonalization with overlap
     ethr =  1.23E-05,  avg # of iterations =  3.8

     negative rho (up, down):  2.504E-03 0.000E+00
 
     Adding external electric field

     Computed dipole along edir(3) : 
        Dipole                0.0838 Ry au,          0.2131 Debye
        Dipole field          0.0006 Ry au
 
        Potential amp.       -0.0397 Ry
        Total length         35.2972 bohr
 

     total cpu time spent up to now is       73.1 secs

     total energy              =   -1205.83002489 Ry
     Harris-Foulkes estimate   =   -1205.83043933 Ry
     estimated scf accuracy    <       0.00281475 Ry

     iteration #  5     ecut=    29.40 Ry     beta=0.10
     Davidson diagonalization with overlap
     ethr =  3.35E-06,  avg # of iterations =  2.5

     negative rho (up, down):  2.591E-03 0.000E+00
 
     Adding external electric field

     Computed dipole along edir(3) : 
        Dipole                0.0879 Ry au,          0.2235 Debye
        Dipole field          0.0006 Ry au
 
        Potential amp.       -0.0416 Ry
        Total length         35.2972 bohr
 

     total cpu time spent up to now is       74.7 secs

     total energy              =   -1205.83019803 Ry
     Harris-Foulkes estimate   =   -1205.83026003 Ry
     estimated scf accuracy    <       0.00076413 Ry

     iteration #  6     ecut=    29.40 Ry     beta=0.10
     Davidson diagonalization with overlap
     ethr =  9.10E-07,  avg # of iterations =  2.5

     negative rho (up, down):  2.630E-03 0.000E+00
 
     Adding external electric field

     Computed dipole along edir(3) : 
        Dipole                0.1073 Ry au,          0.2726 Debye
        Dipole field          0.0007 Ry au
 
        Potential amp.       -0.0508 Ry
        Total length         35.2972 bohr
 

     total cpu time spent up to now is       76.2 secs

     total energy              =   -1205.83021777 Ry
     Harris-Foulkes estimate   =   -1205.83028763 Ry
     estimated scf accuracy    <       0.00093655 Ry

     iteration #  7     ecut=    29.40 Ry     beta=0.10
     Davidson diagonalization with overlap
     ethr =  9.10E-07,  avg # of iterations =  4.3

     negative rho (up, down):  2.609E-03 0.000E+00
 
     Adding external electric field

     Computed dipole along edir(3) : 
        Dipole                0.1091 Ry au,          0.2773 Debye
        Dipole field          0.0007 Ry au
 
        Potential amp.       -0.0517 Ry
        Total length         35.2972 bohr
 

     total cpu time spent up to now is       78.1 secs

     total energy              =   -1205.83026474 Ry
     Harris-Foulkes estimate   =   -1205.83026600 Ry
     estimated scf accuracy    <       0.00005624 Ry

     iteration #  8     ecut=    29.40 Ry     beta=0.10
     Davidson diagonalization with overlap
     ethr =  6.70E-08,  avg # of iterations =  2.0

     negative rho (up, down):  2.561E-03 0.000E+00
 
     Adding external electric field

     Computed dipole along edir(3) : 
        Dipole                0.1094 Ry au,          0.2781 Debye
        Dipole field          0.0007 Ry au
 
        Potential amp.       -0.0518 Ry
        Total length         35.2972 bohr
 

     total cpu time spent up to now is       79.5 secs

     total energy              =   -1205.83027322 Ry
     Harris-Foulkes estimate   =   -1205.83026970 Ry
     estimated scf accuracy    <       0.00000855 Ry

     iteration #  9     ecut=    29.40 Ry     beta=0.10
     Davidson diagonalization with overlap
     ethr =  1.02E-08,  avg # of iterations =  1.0

     negative rho (up, down):  2.527E-03 0.000E+00
 
     Adding external electric field

     Computed dipole along edir(3) : 
        Dipole                0.1089 Ry au,          0.2769 Debye
        Dipole field          0.0007 Ry au
 
        Potential amp.       -0.0516 Ry
        Total length         35.2972 bohr
 

     total cpu time spent up to now is       80.9 secs

     total energy              =   -1205.83027547 Ry
     Harris-Foulkes estimate   =   -1205.83027413 Ry
     estimated scf accuracy    <       0.00000426 Ry

     iteration # 10     ecut=    29.40 Ry     beta=0.10
     Davidson diagonalization with overlap
     ethr =  5.07E-09,  avg # of iterations =  2.0

     negative rho (up, down):  2.332E-03 0.000E+00
 
     Adding external electric field

     Computed dipole along edir(3) : 
        Dipole                0.1057 Ry au,          0.2685 Debye
        Dipole field          0.0007 Ry au
 
        Potential amp.       -0.0500 Ry
        Total length         35.2972 bohr
 

     total cpu time spent up to now is       82.4 secs

     End of self-consistent calculation

          k = 0.0000 0.0000 0.0000 (  5071 PWs)   bands (ev):

   -90.6820 -90.4032 -90.3660 -90.3076 -54.2029 -54.1268 -54.0852 -53.9356
   -53.8500 -53.8186 -53.8111 -53.8029 -53.7952 -53.7717 -53.7275 -53.7212
   -14.7248  -6.0122  -5.5254  -4.7423  -4.6703  -4.5016  -4.3336  -3.6342
    -3.3236  -3.1759  -3.1456  -3.0533  -3.0492  -2.8897  -2.7756  -2.2304
    -2.1738  -1.9588  -1.8689  -1.7435  -1.6761  -1.6345  -1.3993  -1.3014
     0.0913   0.4736   1.4131   2.4906   3.2163   4.7628   5.3434   5.8217
     6.3413   6.7028   7.1763   7.9096   8.6935   9.2764   9.6936   9.9376
    10.6946  10.8728  11.2367  11.5774  11.7634  12.2526  12.6022  12.8529
    13.1579  13.5774  13.9389  14.5264  14.8107  15.2426  15.7920  16.3587

          k = 0.0000 0.0998 0.0000 (  5031 PWs)   bands (ev):

   -90.6791 -90.3997 -90.3637 -90.3049 -54.1962 -54.1333 -54.1132 -53.9177
   -53.8840 -53.8487 -53.8293 -53.8110 -53.7925 -53.7783 -53.7576 -53.7214
   -14.2800  -6.2076  -4.9886  -4.2273  -4.0917  -3.9413  -3.8275  -3.6117
    -3.5240  -3.2850  -3.1347  -2.9808  -2.9187  -2.7033  -2.6526  -2.5680
    -2.4651  -2.3536  -2.1727  -2.0793  -1.9382  -1.7189  -1.5798  -1.0278
    -0.5897   1.3027   1.8519   3.3429   4.7159   6.0997   6.4951   7.0081
     7.7034   8.0758   8.1986   8.6830   8.9396   9.4538   9.6989  10.4302
    10.6246  10.8081  11.0529  11.3401  11.8572  12.3051  12.4968  13.0899
    13.4101  13.6810  13.9741  14.2767  14.8136  15.0514  15.5109  15.5708

          k = 0.0000-0.1996 0.0000 (  5048 PWs)   bands (ev):

   -90.6762 -90.3966 -90.3610 -90.3021 -54.1931 -54.1736 -54.1125 -53.9388
   -53.9272 -53.8529 -53.8342 -53.8115 -53.8074 -53.7815 -53.7595 -53.7255
   -13.7346  -6.9710  -4.9489  -4.6041  -4.5350  -4.4328  -4.2595  -4.1135
    -3.8530  -3.4408  -2.9463  -2.9276  -2.7139  -2.2808  -2.0978  -1.8526
    -1.7824  -1.7517  -1.4903  -1.3562  -1.3059  -1.2782  -0.9110  -0.5953
     1.9022   2.2431   2.8519   3.1145   4.6958   5.6975   6.1418   6.3982
     8.0204   8.1692   8.6083   9.9945  10.1375  10.4310  10.6794  10.7662
    11.0104  11.1105  11.3447  11.4044  11.5547  12.0718  12.2572  12.4804
    12.5973  12.6925  13.1363  13.1651  13.4811  13.6433  14.0641  14.3988

          k =-0.0864 0.0499 0.0000 (  5024 PWs)   bands (ev):

   -90.6819 -90.4023 -90.3669 -90.3076 -54.1978 -54.1224 -54.0836 -53.8938
   -53.8567 -53.8434 -53.8157 -53.8091 -53.8010 -53.7767 -53.7272 -53.7194
   -14.7131  -5.8710  -5.2344  -4.3295  -4.1916  -4.0452  -3.9467  -3.5832
    -3.3968  -3.3770  -3.1514  -2.8328  -2.7735  -2.6718  -2.6021  -2.5342
    -2.4427  -2.3747  -2.2917  -2.1539  -2.0976  -1.9584  -1.7486  -1.5955
    -1.2094  -0.0088   1.2562   1.9893   3.7794   5.0989   5.9326   6.3669
     6.6848   6.9285   7.2247   7.9345   8.2211   8.6175   9.1352   9.9817
    10.5868  10.8896  11.2121  11.7935  12.1174  12.7545  13.6887  14.0394
    14.4366  14.4823  15.3173  15.4452  15.8492  16.2672  16.3238  16.8194

          k =-0.0864 0.1497 0.0000 (  5031 PWs)   bands (ev):

   -90.6791 -90.3997 -90.3637 -90.3049 -54.1962 -54.1359 -54.1103 -53.9139
   -53.8873 -53.8541 -53.8246 -53.8108 -53.7925 -53.7782 -53.7576 -53.7215
   -14.2802  -6.2068  -5.0147  -4.2352  -4.0314  -3.8940  -3.8008  -3.6983
    -3.4886  -3.2708  -3.1384  -3.0315  -2.8704  -2.7247  -2.6370  -2.5419
    -2.5083  -2.3484  -2.2094  -2.0966  -2.0002  -1.7084  -1.5993  -1.0250
    -0.5250   1.4289   1.7795   3.3688   4.6419   6.1234   6.4842   6.9462
     7.7182   8.0543   8.1953   8.6676   8.8618   9.4291   9.7232  10.4882
    10.6743  10.8283  11.0529  11.4529  11.8115  12.0758  12.7709  13.0670
    13.5686  13.7577  14.0752  14.4570  14.7849  14.8951  15.4605  15.5564

          k =-0.0864-0.1497 0.0000 (  5038 PWs)   bands (ev):

   -90.6762 -90.3966 -90.3611 -90.3021 -54.1903 -54.1712 -54.1098 -53.9249
   -53.8941 -53.8862 -53.8483 -53.8174 -53.8098 -53.7830 -53.7594 -53.7247
   -13.7416  -6.9728  -4.5907  -4.0920  -3.9544  -3.8808  -3.7329  -3.6856
    -3.6827  -3.3199  -3.1363  -3.0472  -2.9478  -2.8764  -2.7221  -2.6789
    -2.5159  -2.2721  -2.0326  -1.8867  -1.6523  -1.4453  -0.8313  -0.4197
     1.5566   1.7529   3.3030   4.1255   5.4457   7.6231   7.7570   8.0023
     8.0712   8.5616   8.8198   9.1152   9.4941   9.5808   9.8413   9.9998
    10.4203  10.7314  10.8983  11.2429  11.5372  11.7911  12.0850  12.4017
    12.8513  13.3425  13.6697  13.8107  14.1773  14.5440  14.7293  14.8778

     the Fermi energy is     1.6927 ev

!    total energy              =   -1205.83028788 Ry
     Harris-Foulkes estimate   =   -1205.83028074 Ry
     estimated scf accuracy    <       0.00000091 Ry

     The total energy is the sum of the following terms:

     one-electron contribution =   -5982.32447525 Ry
     hartree contribution      =    2988.76410495 Ry
     xc contribution           =    -123.18928006 Ry
     ewald contribution        =    1910.92814966 Ry
     electric field correction =       0.00007490 Ry
     smearing contrib. (-TS)   =      -0.00886208 Ry

     convergence has been achieved in  10 iterations

     Forces acting on atoms (Ry/au):


     negative rho (up, down):  2.332E-03 0.000E+00
     atom    1 type  1   force =    -0.00227031    0.00199072   -0.00920919
     atom    2 type  1   force =     0.00294448   -0.00178679   -0.01447825
     atom    3 type  1   force =     0.00510171   -0.00859722    0.02328719
     atom    4 type  1   force =    -0.00466720    0.01426678   -0.02075396
     atom    5 type  2   force =    -0.00555415    0.03263781   -0.01734047
     atom    6 type  3   force =    -0.00772894   -0.03169899   -0.02044846
     atom    7 type  3   force =    -0.00741925    0.00072577    0.04929555
     atom    8 type  3   force =     0.01959365   -0.00753809    0.00964759

     Total force =     0.086675     Total SCF correction =     0.006718
 !ASE
     Check: negative starting charge=   -0.002356
     NEW-OLD atomic charge density approx. for the potential
     Check: negative starting charge=   -0.002360

     negative rho (up, down):  2.355E-03 0.000E+00
 
     Adding external electric field

     Computed dipole along edir(3) : 
        Dipole                0.1057 Ry au,          0.2686 Debye
        Dipole field          0.0007 Ry au
 
        Potential amp.       -0.0500 Ry
        Total length         35.2972 bohr
 

     total cpu time spent up to now is       83.6 secs

     per-process dynamical memory:    31.3 Mb

     Self-consistent Calculation

     iteration #  1     ecut=    29.40 Ry     beta=0.10
     Davidson diagonalization with overlap
     ethr =  5.07E-09,  avg # of iterations =  5.7

     negative rho (up, down):  2.352E-03 0.000E+00
 
     Adding external electric field

     Computed dipole along edir(3) : 
        Dipole                0.0617 Ry au,          0.1568 Debye
        Dipole field          0.0004 Ry au
 
        Potential amp.       -0.0292 Ry
        Total length         35.2972 bohr
 

     total cpu time spent up to now is       86.9 secs

     total energy              =   -1205.83320467 Ry
     Harris-Foulkes estimate   =   -1205.83498407 Ry
     estimated scf accuracy    <       0.01137154 Ry

     iteration #  2     ecut=    29.40 Ry     beta=0.10
     Davidson diagonalization with overlap
     ethr =  1.35E-05,  avg # of iterations =  3.2

     negative rho (up, down):  2.349E-03 0.000E+00
 
     Adding external electric field

     Computed dipole along edir(3) : 
        Dipole                0.0869 Ry au,          0.2209 Debye
        Dipole field          0.0006 Ry au
 
        Potential amp.       -0.0412 Ry
        Total length         35.2972 bohr
 

     total cpu time spent up to now is       88.5 secs

     total energy              =   -1205.83358307 Ry
     Harris-Foulkes estimate   =   -1205.83417393 Ry
     estimated scf accuracy    <       0.00677276 Ry

     iteration #  3     ecut=    29.40 Ry     beta=0.10
     Davidson diagonalization with overlap
     ethr =  8.06E-06,  avg # of iterations =  3.0

     negative rho (up, down):  2.353E-03 0.000E+00
 
     Adding external electric field

     Computed dipole along edir(3) : 
        Dipole                0.0850 Ry au,          0.2161 Debye
        Dipole field          0.0006 Ry au
 
        Potential amp.       -0.0403 Ry
        Total length         35.2972 bohr
 

     total cpu time spent up to now is       90.2 secs

     total energy              =   -1205.83336503 Ry
     Harris-Foulkes estimate   =   -1205.83384381 Ry
     estimated scf accuracy    <       0.00251990 Ry

     iteration #  4     ecut=    29.40 Ry     beta=0.10
     Davidson diagonalization with overlap
     ethr =  3.00E-06,  avg # of iterations =  2.0

     negative rho (up, down):  2.388E-03 0.000E+00
 
     Adding external electric field

     Computed dipole along edir(3) : 
        Dipole                0.0912 Ry au,          0.2317 Debye
        Dipole field          0.0006 Ry au
 
        Potential amp.       -0.0432 Ry
        Total length         35.2972 bohr
 

     total cpu time spent up to now is       91.6 secs

     total energy              =   -1205.83328215 Ry
     Harris-Foulkes estimate   =   -1205.83347378 Ry
     estimated scf accuracy    <       0.00099549 Ry

     iteration #  5     ecut=    29.40 Ry     beta=0.10
     Davidson diagonalization with overlap
     ethr =  1.19E-06,  avg # of iterations =  2.8

     negative rho (up, down):  2.407E-03 0.000E+00
 
     Adding external electric field

     Computed dipole along edir(3) : 
        Dipole                0.0914 Ry au,          0.2324 Debye
        Dipole field          0.0006 Ry au
 
        Potential amp.       -0.0433 Ry
        Total length         35.2972 bohr
 

     total cpu time spent up to now is       93.2 secs

     total energy              =   -1205.83337443 Ry
     Harris-Foulkes estimate   =   -1205.83337842 Ry
     estimated scf accuracy    <       0.00020059 Ry

     iteration #  6     ecut=    29.40 Ry     beta=0.10
     Davidson diagonalization with overlap
     ethr =  2.39E-07,  avg # of iterations =  2.0

     negative rho (up, down):  2.406E-03 0.000E+00
 
     Adding external electric field

     Computed dipole along edir(3) : 
        Dipole                0.0980 Ry au,          0.2490 Debye
        Dipole field          0.0007 Ry au
 
        Potential amp.       -0.0464 Ry
        Total length         35.2972 bohr
 

     total cpu time spent up to now is       94.8 secs

     total energy              =   -1205.83338150 Ry
     Harris-Foulkes estimate   =   -1205.83339837 Ry
     estimated scf accuracy    <       0.00022371 Ry

     iteration #  7     ecut=    29.40 Ry     beta=0.10
     Davidson diagonalization with overlap
     ethr =  2.39E-07,  avg # of iterations =  2.3

     negative rho (up, down):  2.407E-03 0.000E+00
 
     Adding external electric field

     Computed dipole along edir(3) : 
        Dipole                0.0991 Ry au,          0.2518 Debye
        Dipole field          0.0007 Ry au
 
        Potential amp.       -0.0469 Ry
        Total length         35.2972 bohr
 

     total cpu time spent up to now is       96.3 secs

     total energy              =   -1205.83340238 Ry
     Harris-Foulkes estimate   =   -1205.83339896 Ry
     estimated scf accuracy    <       0.00002303 Ry

     iteration #  8     ecut=    29.40 Ry     beta=0.10
     Davidson diagonalization with overlap
     ethr =  2.74E-08,  avg # of iterations =  2.0

     negative rho (up, down):  2.397E-03 0.000E+00
 
     Adding external electric field

     Computed dipole along edir(3) : 
        Dipole                0.0988 Ry au,          0.2512 Debye
        Dipole field          0.0007 Ry au
 
        Potential amp.       -0.0468 Ry
        Total length         35.2972 bohr
 

     total cpu time spent up to now is       97.7 secs

     total energy              =   -1205.83340483 Ry
     Harris-Foulkes estimate   =   -1205.83340445 Ry
     estimated scf accuracy    <       0.00000720 Ry

     iteration #  9     ecut=    29.40 Ry     beta=0.10
     Davidson diagonalization with overlap
     ethr =  8.57E-09,  avg # of iterations =  1.0

     negative rho (up, down):  2.389E-03 0.000E+00
 
     Adding external electric field

     Computed dipole along edir(3) : 
        Dipole                0.0982 Ry au,          0.2496 Debye
        Dipole field          0.0007 Ry au
 
        Potential amp.       -0.0465 Ry
        Total length         35.2972 bohr
 

     total cpu time spent up to now is       99.1 secs

     total energy              =   -1205.83340515 Ry
     Harris-Foulkes estimate   =   -1205.83340577 Ry
     estimated scf accuracy    <       0.00000389 Ry

     iteration # 10     ecut=    29.40 Ry     beta=0.10
     Davidson diagonalization with overlap
     ethr =  4.63E-09,  avg # of iterations =  1.7

     negative rho (up, down):  2.348E-03 0.000E+00
 
     Adding external electric field

     Computed dipole along edir(3) : 
        Dipole                0.0964 Ry au,          0.2451 Debye
        Dipole field          0.0006 Ry au
 
        Potential amp.       -0.0457 Ry
        Total length         35.2972 bohr
 

     total cpu time spent up to now is      100.5 secs

     End of self-consistent calculation

          k = 0.0000 0.0000 0.0000 (  5071 PWs)   bands (ev):

   -90.7272 -90.4380 -90.4096 -90.3357 -54.2588 -54.1601 -54.1282 -53.9733
   -53.8869 -53.8566 -53.8484 -53.8455 -53.8302 -53.8055 -53.7576 -53.7509
   -14.8689  -5.9995  -5.4104  -4.7927  -4.7013  -4.5377  -4.3669  -3.6677
    -3.3360  -3.2137  -3.1819  -3.0904  -3.0882  -2.9331  -2.8074  -2.2641
    -2.2091  -1.9900  -1.8975  -1.7816  -1.7117  -1.6695  -1.4350  -1.3397
     0.1330   0.3811   1.4111   2.4714   3.2078   4.8151   5.3280   5.8647
     6.3402   6.6711   7.1035   7.9936   8.6724   9.1853   9.6130  10.1131
    10.7581  10.8408  11.2876  11.6050  11.7579  12.2652  12.6194  12.8732
    13.2011  13.5298  13.9374  14.5455  14.8236  15.2695  15.8599  16.3788

          k = 0.0000 0.0998 0.0000 (  5031 PWs)   bands (ev):

   -90.7243 -90.4343 -90.4076 -90.3330 -54.2522 -54.1723 -54.1505 -53.9553
   -53.9193 -53.8927 -53.8698 -53.8443 -53.8286 -53.8105 -53.7908 -53.7501
   -14.4369  -5.9737  -5.0718  -4.2644  -4.1155  -3.9780  -3.8613  -3.6500
    -3.5668  -3.3081  -3.1678  -3.0183  -2.9569  -2.7397  -2.6886  -2.6132
    -2.5026  -2.3893  -2.2087  -2.1133  -1.9739  -1.7544  -1.6145  -1.1133
    -0.6402   1.2559   1.7944   3.3386   4.7025   6.2028   6.4966   7.0577
     7.7757   8.0750   8.1669   8.6754   9.0167   9.5051   9.7573  10.5052
    10.6008  10.7926  11.0880  11.2706  11.8596  12.3338  12.5022  13.2959
    13.4445  13.7005  13.9967  14.3269  14.7704  15.0585  15.5140  15.5783

          k = 0.0000-0.1996 0.0000 (  5048 PWs)   bands (ev):

   -90.7215 -90.4312 -90.4050 -90.3302 -54.2492 -54.2145 -54.1479 -53.9758
   -53.9671 -53.8915 -53.8761 -53.8443 -53.8406 -53.8111 -53.8008 -53.7523
   -13.9127  -6.7098  -5.0368  -4.6406  -4.5701  -4.4650  -4.2978  -4.1521
    -3.8957  -3.4806  -2.9973  -2.9832  -2.7469  -2.3113  -2.1328  -1.8906
    -1.8166  -1.7831  -1.5294  -1.3922  -1.3479  -1.3121  -1.0680  -0.6053
     1.8549   2.1943   2.8096   3.0735   4.6575   5.7862   6.1055   6.3584
     8.1391   8.1818   9.0888  10.0057  10.1987  10.4020  10.6732  10.7721
    11.0052  11.1410  11.3869  11.4354  11.5857  12.1393  12.2778  12.4424
    12.6115  12.7051  13.1591  13.1791  13.5417  13.6444  14.1114  14.3795

          k =-0.0864 0.0499 0.0000 (  5024 PWs)   bands (ev):

   -90.7272 -90.4368 -90.4108 -90.3358 -54.2540 -54.1559 -54.1267 -53.9282
   -53.8999 -53.8789 -53.8536 -53.8482 -53.8370 -53.8113 -53.7575 -53.7491
   -14.8586  -5.6817  -5.2993  -4.3639  -4.2337  -4.0820  -3.9777  -3.6181
    -3.4349  -3.3960  -3.1854  -2.8572  -2.8007  -2.7089  -2.6432  -2.5696
    -2.4824  -2.4108  -2.3252  -2.1920  -2.1262  -1.9921  -1.7849  -1.6309
    -1.2513  -0.0198   1.2269   1.9060   3.7814   5.1319   6.0182   6.4172
     6.6905   6.9372   7.3039   7.9721   8.2024   8.5664   9.2355   9.7987
    10.6038  10.8758  11.2521  11.7478  12.0860  12.8777  13.6820  14.0499
    14.4561  14.5021  15.2793  15.7967  15.9374  16.2522  16.2810  16.7757

          k =-0.0864 0.1497 0.0000 (  5031 PWs)   bands (ev):

   -90.7243 -90.4343 -90.4076 -90.3330 -54.2523 -54.1739 -54.1487 -53.9512
   -53.9229 -53.8980 -53.8651 -53.8442 -53.8287 -53.8104 -53.7909 -53.7501
   -14.4370  -5.9747  -5.1011  -4.2648  -4.0669  -3.9307  -3.8315  -3.7287
    -3.5224  -3.3034  -3.1734  -3.0656  -2.9047  -2.7639  -2.6717  -2.5904
    -2.5442  -2.3847  -2.2427  -2.1320  -2.0337  -1.7455  -1.6347  -1.0839
    -0.6125   1.3821   1.7268   3.3618   4.6339   6.2079   6.4918   7.0057
     7.7646   8.0428   8.1746   8.6852   8.9749   9.4327   9.7776  10.5141
    10.7091  10.8563  11.0646  11.3940  11.8673  12.1734  12.7001  13.1764
    13.6070  13.7943  14.0873  14.4305  14.7748  14.9226  15.4904  15.5728

          k =-0.0864-0.1497 0.0000 (  5038 PWs)   bands (ev):

   -90.7215 -90.4312 -90.4051 -90.3302 -54.2465 -54.2122 -54.1452 -53.9605
   -53.9384 -53.9207 -53.8916 -53.8497 -53.8425 -53.8128 -53.8010 -53.7515
   -13.9186  -6.7142  -4.7046  -4.1211  -3.9920  -3.9150  -3.7715  -3.7248
    -3.7209  -3.3689  -3.1772  -3.0714  -2.9805  -2.9128  -2.7642  -2.7187
    -2.5598  -2.3094  -2.0667  -1.9199  -1.6949  -1.4779  -0.9941  -0.4283
     1.5311   1.7058   3.2910   4.0936   5.4287   7.7441   7.9283   8.0140
     8.1606   8.6255   8.8443   9.1214   9.4842   9.6360   9.8172  10.0574
    10.4637  10.7231  10.8922  11.2228  11.5660  11.8254  12.0059  12.4280
    12.9048  13.3098  13.6887  13.9338  14.1602  14.5808  14.6862  14.8933

     the Fermi energy is     1.6454 ev

!    total energy              =   -1205.83340835 Ry
     Harris-Foulkes estimate   =   -1205.83340771 Ry
     estimated scf accuracy    <       0.00000018 Ry

     The total energy is the sum of the following terms:

     one-electron contribution =   -5971.14797333 Ry
     hartree contribution      =    2983.11330861 Ry
     xc contribution           =    -123.22679736 Ry
     ewald contribution        =    1905.43732290 Ry
     electric field correction =       0.00006240 Ry
     smearing contrib. (-TS)   =      -0.00933157 Ry

     convergence has been achieved in  10 iterations

     Forces acting on atoms (Ry/au):


     negative rho (up, down):  2.348E-03 0.000E+00
     atom    1 type  1   force =    -0.00225098    0.00195435   -0.00925446
     atom    2 type  1   force =     0.00298493   -0.00181286   -0.01543313
     atom    3 type  1   force =     0.00509408   -0.00795781    0.02286215
     atom    4 type  1   force =    -0.00077039    0.00932143   -0.01311423
     atom    5 type  2   force =     0.01148497   -0.08987132   -0.11801175
     atom    6 type  3   force =    -0.03957135    0.05016051    0.09290090
     atom    7 type  3   force =     0.00528974    0.04357272    0.02282874
     atom    8 type  3   force =     0.01773900   -0.00536703    0.01722179

     Total force =     0.197869     Total SCF correction =     0.001338
 !ASE
     Check: negative starting charge=   -0.002360
     NEW-OLD atomic charge density approx. for the potential
     Check: negative starting charge=   -0.002358

     negative rho (up, down):  2.348E-03 0.000E+00
 
     Adding external electric field

     Computed dipole along edir(3) : 
        Dipole                0.0964 Ry au,          0.2451 Debye
        Dipole field          0.0006 Ry au
 
        Potential amp.       -0.0457 Ry
        Total length         35.2972 bohr
 

     total cpu time spent up to now is      101.7 secs

     per-process dynamical memory:    31.3 Mb

     Self-consistent Calculation

     iteration #  1     ecut=    29.40 Ry     beta=0.10
     Davidson diagonalization with overlap
     ethr =  4.63E-09,  avg # of iterations =  4.3

     negative rho (up, down):  2.347E-03 0.000E+00
 
     Adding external electric field

     Computed dipole along edir(3) : 
        Dipole                0.1195 Ry au,          0.3038 Debye
        Dipole field          0.0008 Ry au
 
        Potential amp.       -0.0566 Ry
        Total length         35.2972 bohr
 

     total cpu time spent up to now is      104.8 secs

     total energy              =   -1205.83556995 Ry
     Harris-Foulkes estimate   =   -1205.83593287 Ry
     estimated scf accuracy    <       0.00248551 Ry

     iteration #  2     ecut=    29.40 Ry     beta=0.10
     Davidson diagonalization with overlap
     ethr =  2.96E-06,  avg # of iterations =  3.3

     negative rho (up, down):  2.347E-03 0.000E+00
 
     Adding external electric field

     Computed dipole along edir(3) : 
        Dipole                0.1068 Ry au,          0.2715 Debye
        Dipole field          0.0007 Ry au
 
        Potential amp.       -0.0506 Ry
        Total length         35.2972 bohr
 

     total cpu time spent up to now is      106.6 secs

     total energy              =   -1205.83569107 Ry
     Harris-Foulkes estimate   =   -1205.83585961 Ry
     estimated scf accuracy    <       0.00161138 Ry

     iteration #  3     ecut=    29.40 Ry     beta=0.10
     Davidson diagonalization with overlap
     ethr =  1.92E-06,  avg # of iterations =  3.0

     negative rho (up, down):  2.345E-03 0.000E+00
 
     Adding external electric field

     Computed dipole along edir(3) : 
        Dipole                0.1068 Ry au,          0.2714 Debye
        Dipole field          0.0007 Ry au
 
        Potential amp.       -0.0506 Ry
        Total length         35.2972 bohr
 

     total cpu time spent up to now is      108.2 secs

     total energy              =   -1205.83567622 Ry
     Harris-Foulkes estimate   =   -1205.83575539 Ry
     estimated scf accuracy    <       0.00042894 Ry

     iteration #  4     ecut=    29.40 Ry     beta=0.10
     Davidson diagonalization with overlap
     ethr =  5.11E-07,  avg # of iterations =  2.0

     negative rho (up, down):  2.347E-03 0.000E+00
 
     Adding external electric field

     Computed dipole along edir(3) : 
        Dipole                0.1062 Ry au,          0.2700 Debye
        Dipole field          0.0007 Ry au
 
        Potential amp.       -0.0503 Ry
        Total length         35.2972 bohr
 

     total cpu time spent up to now is      109.7 secs

     total energy              =   -1205.83565179 Ry
     Harris-Foulkes estimate   =   -1205.83569303 Ry
     estimated scf accuracy    <       0.00017851 Ry

     iteration #  5     ecut=    29.40 Ry     beta=0.10
     Davidson diagonalization with overlap
     ethr =  2.13E-07,  avg # of iterations =  2.0

     negative rho (up, down):  2.350E-03 0.000E+00
 
     Adding external electric field

     Computed dipole along edir(3) : 
        Dipole                0.1022 Ry au,          0.2597 Debye
        Dipole field          0.0007 Ry au
 
        Potential amp.       -0.0484 Ry
        Total length         35.2972 bohr
 

     total cpu time spent up to now is      111.2 secs

     total energy              =   -1205.83566862 Ry
     Harris-Foulkes estimate   =   -1205.83567495 Ry
     estimated scf accuracy    <       0.00003159 Ry

     iteration #  6     ecut=    29.40 Ry     beta=0.10
     Davidson diagonalization with overlap
     ethr =  3.76E-08,  avg # of iterations =  2.0

     negative rho (up, down):  2.350E-03 0.000E+00
 
     Adding external electric field

[...]

     Computed dipole along edir(3) : 
        Dipole                0.0035 Ry au,          0.0090 Debye
        Dipole field          0.0000 Ry au
 
        Potential amp.       -0.0017 Ry
        Total length         35.2972 bohr
 

     total cpu time spent up to now is      625.7 secs

     total energy              =   -1205.86481504 Ry
     Harris-Foulkes estimate   =   -1205.86481577 Ry
     estimated scf accuracy    <       0.00001038 Ry

     iteration #  3     ecut=    29.40 Ry     beta=0.10
     Davidson diagonalization with overlap
     ethr =  1.08E-08,  avg # of iterations =  1.0

     negative rho (up, down):  2.422E-03 0.000E+00
 
     Adding external electric field

     Computed dipole along edir(3) : 
        Dipole                0.0033 Ry au,          0.0083 Debye
        Dipole field          0.0000 Ry au
 
        Potential amp.       -0.0015 Ry
        Total length         35.2972 bohr
 

     total cpu time spent up to now is      627.0 secs

     total energy              =   -1205.86481510 Ry
     Harris-Foulkes estimate   =   -1205.86481544 Ry
     estimated scf accuracy    <       0.00000257 Ry

     iteration #  4     ecut=    29.40 Ry     beta=0.10
     Davidson diagonalization with overlap
     ethr =  3.05E-09,  avg # of iterations =  1.0

     negative rho (up, down):  2.421E-03 0.000E+00
 
     Adding external electric field

     Computed dipole along edir(3) : 
        Dipole                0.0026 Ry au,          0.0066 Debye
        Dipole field          0.0000 Ry au
 
        Potential amp.       -0.0012 Ry
        Total length         35.2972 bohr
 

     total cpu time spent up to now is      628.3 secs

     End of self-consistent calculation

          k = 0.0000 0.0000 0.0000 (  5071 PWs)   bands (ev):

   -90.6846 -90.5629 -90.5344 -90.5178 -54.2050 -54.1314 -54.0874 -54.0773
   -54.0281 -54.0052 -53.9925 -53.9743 -53.9593 -53.9425 -53.9397 -53.9205
   -14.7714  -6.3737  -5.1719  -4.8007  -4.7026  -4.5545  -4.3737  -3.6832
    -3.4186  -3.3188  -3.3047  -3.1969  -3.1911  -2.9738  -2.9291  -2.3509
    -2.3291  -2.2241  -1.9887  -1.9397  -1.8609  -1.8110  -1.5495  -1.4464
     0.0149   0.3286   1.7415   2.0400   2.8149   4.9934   5.2898   5.6005
     6.1925   6.7107   7.1171   8.5572   8.7382   9.5915   9.9243  10.2081
    10.6572  10.8938  11.2926  11.6030  11.7857  12.4560  12.6150  12.8790
    13.1308  13.3328  13.9556  14.2677  15.1579  15.3691  15.5986  16.3983

          k = 0.0000 0.0998 0.0000 (  5031 PWs)   bands (ev):

   -90.6815 -90.5601 -90.5302 -90.5166 -54.1978 -54.1276 -54.1153 -54.0585
   -54.0461 -54.0337 -54.0083 -54.0011 -53.9842 -53.9676 -53.9408 -53.9173
   -14.3490  -5.7650  -5.2321  -4.3199  -4.1573  -4.0594  -3.9402  -3.7789
    -3.5943  -3.4692  -3.3207  -3.0923  -2.9903  -2.8303  -2.8102  -2.6959
    -2.6192  -2.5060  -2.3440  -2.2557  -2.1453  -1.8688  -1.7581  -1.1208
    -0.7683   1.1296   1.7023   3.2716   4.6909   6.3784   6.6374   7.0377
     7.7746   7.9809   8.0538   8.7807   9.0991   9.6958   9.8476  10.3064
    10.5212  10.9843  11.1635  11.3641  11.7248  12.1840  12.3681  13.0036
    13.4571  13.8097  14.1305  14.4292  14.7448  15.1167  15.5365  15.6755

          k = 0.0000-0.1996 0.0000 (  5048 PWs)   bands (ev):

   -90.6785 -90.5571 -90.5269 -90.5143 -54.2062 -54.1672 -54.1191 -54.0767
   -54.0670 -54.0574 -54.0298 -53.9919 -53.9830 -53.9741 -53.9457 -53.9155
   -13.8409  -6.2846  -5.6238  -4.6832  -4.6337  -4.4828  -4.3845  -4.2329
    -3.7761  -3.5132  -3.0778  -2.9389  -2.8422  -2.6568  -2.2860  -1.9872
    -1.9610  -1.9510  -1.5628  -1.5394  -1.4471  -1.4423  -1.2041  -0.6538
     1.4986   2.0918   2.6490   2.9149   5.0999   5.5233   6.0046   6.6998
     8.1809   8.7181   9.1011   9.7126   9.9944  10.4715  10.5716  10.8248
    11.2048  11.2304  11.3478  11.5162  11.7369  12.0669  12.2581  12.4506
    12.5535  12.7363  13.2271  13.3045  13.3591  13.5763  13.8813  14.4754

          k =-0.0864 0.0499 0.0000 (  5024 PWs)   bands (ev):

   -90.6843 -90.5631 -90.5323 -90.5200 -54.1898 -54.1179 -54.0826 -54.0516
   -54.0303 -54.0134 -54.0090 -53.9931 -53.9635 -53.9517 -53.9388 -53.9196
   -14.7614  -5.9195  -4.9895  -4.3699  -4.2160  -4.1699  -4.1461  -3.7434
    -3.6026  -3.3923  -3.3533  -2.9284  -2.8478  -2.8031  -2.7490  -2.6759
    -2.5692  -2.5538  -2.4759  -2.2838  -2.2430  -2.1168  -1.8824  -1.8151
    -1.1293  -0.4439   0.9370   1.9010   3.5172   5.3455   6.0359   6.7134
     6.7661   6.9454   7.4682   8.2343   8.3023   8.7443   9.4416  10.2028
    10.5489  10.8745  11.3901  11.6148  11.9784  12.4752  13.3667  13.9668
    14.3083  14.6384  14.7309  15.4962  15.8067  16.0871  16.8355  16.9535

          k =-0.0864 0.1497 0.0000 (  5031 PWs)   bands (ev):

   -90.6815 -90.5601 -90.5302 -90.5166 -54.1920 -54.1402 -54.1097 -54.0620
   -54.0442 -54.0268 -54.0118 -54.0035 -53.9840 -53.9659 -53.9407 -53.9173
   -14.3493  -5.7206  -5.1690  -4.3337  -4.1663  -4.0932  -3.9196  -3.8374
    -3.6726  -3.4665  -3.2782  -3.1535  -2.9592  -2.8511  -2.8010  -2.7167
    -2.6239  -2.5025  -2.3215  -2.2449  -2.2034  -1.8548  -1.7734  -1.1527
    -0.6610   1.1912   1.6913   3.3085   4.7018   6.3227   6.6485   6.9435
     7.8405   7.9384   8.0482   8.7252   9.1178   9.6149   9.9165  10.4122
    10.5667  10.9612  11.1789  11.5013  11.7722  12.2000  12.4696  13.1574
    13.5627  13.7659  14.0939  14.2579  14.5500  14.9849  15.5703  15.6464

          k =-0.0864-0.1497 0.0000 (  5038 PWs)   bands (ev):

   -90.6785 -90.5572 -90.5269 -90.5143 -54.1979 -54.1540 -54.1080 -54.0912
   -54.0438 -54.0427 -54.0405 -54.0165 -54.0053 -53.9752 -53.9449 -53.9150
   -13.8464  -6.2579  -5.2717  -4.1291  -4.0679  -3.9948  -3.9156  -3.8607
    -3.6918  -3.3552  -3.2644  -3.1957  -3.1362  -3.0174  -2.8399  -2.8124
    -2.6756  -2.2774  -2.2620  -2.0865  -1.8505  -1.6590  -1.0353  -0.4482
     1.4133   1.4980   3.3257   3.8972   6.1703   7.3696   7.8547   7.9450
     8.1932   8.4037   8.9519   9.1297   9.4738   9.6332   9.8896  10.1094
    10.4390  10.6910  10.9585  11.2180  11.4240  11.6428  11.8726  12.4787
    13.0254  13.0999  13.4113  13.8351  14.2992  14.4347  14.6820  14.8051

     the Fermi energy is     1.5579 ev

!    total energy              =   -1205.86481516 Ry
     Harris-Foulkes estimate   =   -1205.86481525 Ry
     estimated scf accuracy    <       0.00000094 Ry

     The total energy is the sum of the following terms:

     one-electron contribution =   -5976.24981083 Ry
     hartree contribution      =    2985.54301509 Ry
     xc contribution           =    -123.23631655 Ry
     ewald contribution        =    1908.08710886 Ry
     electric field correction =       0.00000005 Ry
     smearing contrib. (-TS)   =      -0.00881178 Ry

     convergence has been achieved in   4 iterations

     Forces acting on atoms (Ry/au):


     negative rho (up, down):  2.421E-03 0.000E+00
     atom    1 type  1   force =    -0.00156280    0.00096003   -0.00175873
     atom    2 type  1   force =     0.00098276   -0.00019594   -0.01988634
     atom    3 type  1   force =    -0.01687020    0.00447645    0.00882426
     atom    4 type  1   force =     0.01736386   -0.00527909    0.01322383
     atom    5 type  2   force =    -0.00833658    0.00278846   -0.00817407
     atom    6 type  3   force =    -0.00001352   -0.00020727   -0.00017598
     atom    7 type  3   force =     0.00007088    0.00082969   -0.00043234
     atom    8 type  3   force =     0.00836561   -0.00337233    0.00837936

     Total force =     0.039828     Total SCF correction =     0.002359
 !ASE
     Check: negative starting charge=   -0.002385
     NEW-OLD atomic charge density approx. for the potential
     Check: negative starting charge=   -0.002386

     negative rho (up, down):  2.424E-03 0.000E+00
 
     Adding external electric field

     Computed dipole along edir(3) : 
        Dipole                0.0026 Ry au,          0.0066 Debye
        Dipole field          0.0000 Ry au
 
        Potential amp.       -0.0012 Ry
        Total length         35.2972 bohr
 

     total cpu time spent up to now is      629.5 secs

     per-process dynamical memory:    31.3 Mb

     Self-consistent Calculation

     iteration #  1     ecut=    29.40 Ry     beta=0.10
     Davidson diagonalization with overlap
     ethr =  3.05E-09,  avg # of iterations =  3.0

     negative rho (up, down):  2.423E-03 0.000E+00
 
     Adding external electric field

     Computed dipole along edir(3) : 
        Dipole                0.0014 Ry au,          0.0036 Debye
        Dipole field          0.0000 Ry au
 
        Potential amp.       -0.0007 Ry
        Total length         35.2972 bohr
 

     total cpu time spent up to now is      631.6 secs

     total energy              =   -1205.86481620 Ry
     Harris-Foulkes estimate   =   -1205.86481737 Ry
     estimated scf accuracy    <       0.00000802 Ry

     iteration #  2     ecut=    29.40 Ry     beta=0.10
     Davidson diagonalization with overlap
     ethr =  9.55E-09,  avg # of iterations =  1.0

     negative rho (up, down):  2.423E-03 0.000E+00
 
     Adding external electric field

     Computed dipole along edir(3) : 
        Dipole                0.0023 Ry au,          0.0058 Debye
        Dipole field          0.0000 Ry au
 
        Potential amp.       -0.0011 Ry
        Total length         35.2972 bohr
 

     total cpu time spent up to now is      632.9 secs

     total energy              =   -1205.86481647 Ry
     Harris-Foulkes estimate   =   -1205.86481723 Ry
     estimated scf accuracy    <       0.00001034 Ry

     iteration #  3     ecut=    29.40 Ry     beta=0.10
     Davidson diagonalization with overlap
     ethr =  9.55E-09,  avg # of iterations =  1.0

     negative rho (up, down):  2.423E-03 0.000E+00
 
     Adding external electric field

     Computed dipole along edir(3) : 
        Dipole                0.0022 Ry au,          0.0055 Debye
        Dipole field          0.0000 Ry au
 
        Potential amp.       -0.0010 Ry
        Total length         35.2972 bohr
 

     total cpu time spent up to now is      634.3 secs

     total energy              =   -1205.86481681 Ry
     Harris-Foulkes estimate   =   -1205.86481689 Ry
     estimated scf accuracy    <       0.00000156 Ry

     iteration #  4     ecut=    29.40 Ry     beta=0.10
     Davidson diagonalization with overlap
     ethr =  1.85E-09,  avg # of iterations =  1.0

     negative rho (up, down):  2.422E-03 0.000E+00
 
     Adding external electric field

     Computed dipole along edir(3) : 
        Dipole                0.0017 Ry au,          0.0044 Debye
        Dipole field          0.0000 Ry au
 
        Potential amp.       -0.0008 Ry
        Total length         35.2972 bohr
 

     total cpu time spent up to now is      635.6 secs

     End of self-consistent calculation

          k = 0.0000 0.0000 0.0000 (  5071 PWs)   bands (ev):

   -90.6859 -90.5662 -90.5367 -90.5200 -54.2064 -54.1328 -54.0890 -54.0795
   -54.0315 -54.0082 -53.9954 -53.9764 -53.9615 -53.9447 -53.9422 -53.9227
   -14.7776  -6.3804  -5.1760  -4.8039  -4.7049  -4.5562  -4.3767  -3.6843
    -3.4218  -3.3211  -3.3070  -3.1989  -3.1933  -2.9758  -2.9311  -2.3529
    -2.3316  -2.2254  -1.9906  -1.9419  -1.8633  -1.8137  -1.5517  -1.4485
     0.0113   0.3279   1.7389   2.0383   2.8117   4.9976   5.2892   5.6009
     6.1934   6.7111   7.1171   8.5555   8.7405   9.5928   9.9234  10.2113
    10.6587  10.8938  11.2934  11.6057  11.7858  12.4573  12.6145  12.8800
    13.1316  13.3304  13.9567  14.2660  15.1576  15.3664  15.6006  16.3946

          k = 0.0000 0.0998 0.0000 (  5031 PWs)   bands (ev):

   -90.6828 -90.5635 -90.5324 -90.5187 -54.1990 -54.1289 -54.1169 -54.0608
   -54.0490 -54.0371 -54.0107 -54.0033 -53.9870 -53.9698 -53.9432 -53.9195
   -14.3552  -5.7744  -5.2360  -4.3221  -4.1596  -4.0617  -3.9426  -3.7809
    -3.5964  -3.4718  -3.3227  -3.0946  -2.9926  -2.8326  -2.8122  -2.6978
    -2.6215  -2.5083  -2.3456  -2.2580  -2.1477  -1.8711  -1.7604  -1.1220
    -0.7703   1.1276   1.7008   3.2711   4.6896   6.3815   6.6378   7.0364
     7.7745   7.9797   8.0530   8.7799   9.1012   9.6962   9.8495  10.3041
    10.5213  10.9859  11.1632  11.3637  11.7238  12.1854  12.3675  13.0062
    13.4573  13.8098  14.1300  14.4293  14.7439  15.1188  15.5374  15.6770

          k = 0.0000-0.1996 0.0000 (  5048 PWs)   bands (ev):

   -90.6798 -90.5605 -90.5291 -90.5164 -54.2073 -54.1689 -54.1208 -54.0791
   -54.0693 -54.0596 -54.0332 -53.9941 -53.9858 -53.9767 -53.9480 -53.9177
   -13.8472  -6.2936  -5.6286  -4.6856  -4.6356  -4.4850  -4.3863  -4.2351
    -3.7780  -3.5155  -3.0799  -2.9408  -2.8451  -2.6586  -2.2881  -1.9896
    -1.9630  -1.9533  -1.5646  -1.5421  -1.4494  -1.4443  -1.2075  -0.6535
     1.4947   2.0897   2.6469   2.9127   5.1021   5.5181   6.0024   6.6965
     8.1806   8.7210   9.1073   9.7098   9.9972  10.4749  10.5711  10.8242
    11.2086  11.2319  11.3478  11.5174  11.7399  12.0681  12.2577  12.4515
    12.5546  12.7364  13.2256  13.3042  13.3570  13.5771  13.8831  14.4757

          k =-0.0864 0.0499 0.0000 (  5024 PWs)   bands (ev):

   -90.6856 -90.5665 -90.5346 -90.5221 -54.1910 -54.1192 -54.0841 -54.0552
   -54.0328 -54.0159 -54.0116 -53.9960 -53.9657 -53.9539 -53.9413 -53.9218
   -14.7675  -5.9273  -4.9926  -4.3723  -4.2183  -4.1720  -4.1494  -3.7455
    -3.6052  -3.3940  -3.3563  -2.9304  -2.8495  -2.8057  -2.7514  -2.6785
    -2.5710  -2.5563  -2.4782  -2.2861  -2.2450  -2.1195  -1.8842  -1.8177
    -1.1308  -0.4449   0.9332   1.9005   3.5178   5.3457   6.0383   6.7127
     6.7698   6.9452   7.4704   8.2357   8.3025   8.7456   9.4416  10.2051
    10.5474  10.8746  11.3906  11.6121  11.9764  12.4735  13.3660  13.9654
    14.3095  14.6392  14.7282  15.4955  15.8009  16.0849  16.8358  16.9598

          k =-0.0864 0.1497 0.0000 (  5031 PWs)   bands (ev):

   -90.6828 -90.5635 -90.5324 -90.5187 -54.1932 -54.1416 -54.1112 -54.0647
   -54.0469 -54.0300 -54.0143 -54.0058 -53.9868 -53.9681 -53.9431 -53.9195
   -14.3555  -5.7309  -5.1728  -4.3358  -4.1682  -4.0952  -3.9221  -3.8390
    -3.6747  -3.4690  -3.2801  -3.1559  -2.9616  -2.8532  -2.8032  -2.7187
    -2.6262  -2.5047  -2.3235  -2.2472  -2.2057  -1.8571  -1.7757  -1.1541
    -0.6630   1.1890   1.6896   3.3073   4.7003   6.3265   6.6488   6.9437
     7.8393   7.9372   8.0481   8.7244   9.1209   9.6161   9.9171  10.4129
    10.5653  10.9629  11.1767  11.5012  11.7711  12.2018  12.4714  13.1559
    13.5620  13.7647  14.0934  14.2589  14.5497  14.9855  15.5701  15.6485

          k =-0.0864-0.1497 0.0000 (  5038 PWs)   bands (ev):

   -90.6798 -90.5606 -90.5292 -90.5165 -54.1989 -54.1556 -54.1094 -54.0942
   -54.0464 -54.0453 -54.0433 -54.0187 -54.0075 -53.9785 -53.9471 -53.9172
   -13.8527  -6.2666  -5.2762  -4.1313  -4.0702  -3.9973  -3.9179  -3.8629
    -3.6953  -3.3574  -3.2661  -3.1985  -3.1382  -3.0193  -2.8420  -2.8146
    -2.6776  -2.2802  -2.2639  -2.0885  -1.8527  -1.6608  -1.0385  -0.4481
     1.4116   1.4958   3.3255   3.8939   6.1710   7.3665   7.8520   7.9418
     8.1910   8.4054   8.9532   9.1305   9.4748   9.6322   9.8911  10.1088
    10.4389  10.6922  10.9577  11.2181  11.4245  11.6423  11.8731  12.4794
    13.0269  13.0997  13.4116  13.8372  14.3033  14.4359  14.6820  14.8039

     the Fermi energy is     1.5557 ev

!    total energy              =   -1205.86481685 Ry
     Harris-Foulkes estimate   =   -1205.86481686 Ry
     estimated scf accuracy    <       0.00000081 Ry

     The total energy is the sum of the following terms:

     one-electron contribution =   -5976.64446326 Ry
     hartree contribution      =    2985.73494390 Ry
     xc contribution           =    -123.23749618 Ry
     ewald contribution        =    1908.29099794 Ry
     electric field correction =       0.00000002 Ry
     smearing contrib. (-TS)   =      -0.00879926 Ry

     convergence has been achieved in   4 iterations

     Forces acting on atoms (Ry/au):


     negative rho (up, down):  2.422E-03 0.000E+00
     atom    1 type  1   force =    -0.00162205    0.00099370   -0.00171907
     atom    2 type  1   force =     0.00105449   -0.00022301   -0.01985699
     atom    3 type  1   force =    -0.01688812    0.00451216    0.00872791
     atom    4 type  1   force =     0.01747389   -0.00534187    0.01318234
     atom    5 type  2   force =    -0.00756738    0.00305532   -0.00871182
     atom    6 type  3   force =    -0.00036713    0.00005281    0.00031107
     atom    7 type  3   force =    -0.00009376    0.00027330   -0.00014830
     atom    8 type  3   force =     0.00801006   -0.00332241    0.00821487

     Total force =     0.039711     Total SCF correction =     0.001587
 !ASE
 
     init_run     :      0.92s CPU      0.93s WALL (       1 calls)
     electrons    :    576.76s CPU    581.93s WALL (      45 calls)
     update_pot   :     19.57s CPU     19.97s WALL (      44 calls)
     forces       :     27.00s CPU     27.14s WALL (      45 calls)

     Called by init_run:
     wfcinit      :      0.33s CPU      0.34s WALL (       1 calls)
     potinit      :      0.14s CPU      0.14s WALL (       1 calls)

     Called by electrons:
     c_bands      :    440.63s CPU    444.41s WALL (     344 calls)
     sum_band     :     86.46s CPU     87.28s WALL (     344 calls)
     v_of_rho     :      9.46s CPU      9.56s WALL (     389 calls)
     newd         :     42.11s CPU     42.29s WALL (     389 calls)
     mix_rho      :      2.16s CPU      2.19s WALL (     344 calls)

     Called by c_bands:
     init_us_2    :      2.44s CPU      2.50s WALL (    4404 calls)
     cegterg      :    426.79s CPU    430.38s WALL (    2064 calls)

     Called by *egterg:
     h_psi        :    192.85s CPU    195.33s WALL (    6851 calls)
     s_psi        :     12.76s CPU     12.87s WALL (    6851 calls)
     g_psi        :      1.88s CPU      1.90s WALL (    4781 calls)
     cdiaghg      :    115.16s CPU    115.60s WALL (    6581 calls)

     Called by h_psi:
     add_vuspsi   :     13.07s CPU     13.20s WALL (    6851 calls)

     General routines
     calbec       :     24.94s CPU     25.03s WALL (    9185 calls)
     fft          :      9.26s CPU      9.53s WALL (    6583 calls)
     ffts         :      0.23s CPU      0.25s WALL (     733 calls)
     fftw         :    161.56s CPU    163.96s WALL (  830176 calls)
     interpolate  :      1.23s CPU      1.26s WALL (     733 calls)
 
     Parallel routines
     fft_scatter  :     76.72s CPU     77.34s WALL (  837492 calls)
 
     PWSCF        : 10m29.27s CPU    10m36.48s WALL

 
   This run was terminated on:   6:56:54  18Feb2017            

=------------------------------------------------------------------------------=
   JOB DONE.
=------------------------------------------------------------------------------=
Job  /afs/slac/g/suncat/bin/suncat-tsmpirun -x LD_LIBRARY_PATH -wdir /scratch/qe259882_9NRSI pw.x -in pw.inp

TID   HOST_NAME   COMMAND_LINE            STATUS            TERMINATION_TIME
===== ========== ================  =======================  ===================
00000 suncat1015 pw.x -in pw.inp   Done                     02/18/2017 06:56:54
00001 suncat1015 pw.x -in pw.inp   Done                     02/18/2017 06:56:54
00002 suncat1015 pw.x -in pw.inp   Done                     02/18/2017 06:56:54
00003 suncat1015 pw.x -in pw.inp   Done                     02/18/2017 06:56:54
00004 suncat1015 pw.x -in pw.inp   Done                     02/18/2017 06:56:54
00005 suncat1015 pw.x -in pw.inp   Done                     02/18/2017 06:56:54
00006 suncat1015 pw.x -in pw.inp   Done                     02/18/2017 06:56:54
00007 suncat1015 pw.x -in pw.inp   Done                     02/18/2017 06:56:54
00008 suncat1015 pw.x -in pw.inp   Done                     02/18/2017 06:56:54
00009 suncat1015 pw.x -in pw.inp   Done                     02/18/2017 06:56:54
00010 suncat1015 pw.x -in pw.inp   Done                     02/18/2017 06:56:54
00011 suncat1015 pw.x -in pw.inp   Done                     02/18/2017 06:56:54
