  python dir          : /nfs/slac/g/suncatfs/aidank/software/ase-espresso/lib/python2.7/site-packages/espresso
  espresso dir        : /nfs/slac/g/suncatfs/aidank/software/espresso-qeforge/bin
  pseudo dir          : /nfs/slac/g/suncatfs/aidank/scripts/gbrv/
  ase-espresso py git : c91b4c2-git



     Program PWSCF v.5.0.2 (svn rev. 10453) starts on 18Feb2017 at  6:34:34 

     This program is part of the open-source Quantum ESPRESSO suite
     for quantum simulation of materials; please cite
         "P. Giannozzi et al., J. Phys.:Condens. Matter 21 395502 (2009);
          URL http://www.quantum-espresso.org", 
     in publications or presentations arising from this work. More details at
     http://www.quantum-espresso.org/quote

     Parallel version (MPI), running on    12 processors
     R & G space division:  proc/nbgrp/npool/nimage =      12
     Reading input from pw.inp
     Message from routine read_cards :
     DEPRECATED: no units specified in CELL_PARAMETERS card

     Current dimensions of program PWSCF are:
     Max number of different atomic species (ntypx) = 10
     Max number of k-points (npk) =  40000
     Max angular momentum in pseudopotentials (lmaxx) =  3
     Presently no symmetry can be used with electric field


     IMPORTANT: XC functional enforced from input :
     Exchange-correlation      = PBE ( 1  4  3  4 0)
     Any further DFT definition will be discarded
     Please, verify this is what you really want


     Subspace diagonalization in iterative solution of the eigenvalue problem:
     a serial algorithm will be used

 
     Parallelization info
     --------------------
     sticks:   dense  smooth     PW     G-vecs:    dense   smooth      PW
     Min          81      39     12                 9513     3338     586
     Max          82      40     16                 9522     3378     597
     Sum         981     479    161               114205    40347    7083
 


     bravais-lattice index     =            0
     lattice parameter (alat)  =       1.8897  a.u.
     unit-cell volume          =    1872.8848 (a.u.)^3
     number of atoms/cell      =            8
     number of atomic types    =            3
     number of electrons       =        84.00
     number of Kohn-Sham states=           72
     kinetic-energy cutoff     =      29.3995  Ry
     charge density cutoff     =     235.1957  Ry
     convergence threshold     =      1.0E-06
     mixing beta               =       0.1000
     number of iterations used =           15  plain     mixing
     Exchange-correlation      = PBE ( 1  4  3  4 0)
     nstep                     =           50


     celldm(1)=   1.889726  celldm(2)=   0.000000  celldm(3)=   0.000000
     celldm(4)=   0.000000  celldm(5)=   0.000000  celldm(6)=   0.000000

     crystal axes: (cart. coord. in units of alat)
               a(1) = (   5.784133   0.000000   0.000000 )  
               a(2) = (   1.446033   2.504603   0.000000 )  
               a(3) = (   0.000000   0.000000  19.157428 )  

     reciprocal axes: (cart. coord. in units 2 pi/alat)
               b(1) = (  0.172887 -0.099816  0.000000 )  
               b(2) = (  0.000000  0.399265  0.000000 )  
               b(3) = (  0.000000  0.000000  0.052199 )  


     PseudoPot. # 1 for Ag read from file:
     /nfs/slac/g/suncatfs/aidank/scripts/gbrv/Ag.UPF
     MD5 check sum: d66d668201baa78d5eb5b04ef7011058
     Pseudo is Ultrasoft + core correction, Zval = 19.0
     Generated by new atomic code, or converted to UPF format
     Using radial grid of  887 points,  6 beta functions with: 
                l(1) =   0
                l(2) =   0
                l(3) =   1
                l(4) =   1
                l(5) =   2
                l(6) =   2
     Q(r) pseudized with  6 coefficients,  rinner =    1.300   1.300   1.300
                                                       1.300   1.300

     PseudoPot. # 2 for N  read from file:
     /nfs/slac/g/suncatfs/aidank/scripts/gbrv/N.UPF
     MD5 check sum: 95339753478d7afb44899504a8723017
     Pseudo is Ultrasoft + core correction, Zval =  5.0
     Generated by new atomic code, or converted to UPF format
     Using radial grid of  729 points,  4 beta functions with: 
                l(1) =   0
                l(2) =   0
                l(3) =   1
                l(4) =   1
     Q(r) pseudized with  8 coefficients,  rinner =    0.900   0.900   0.900


     PseudoPot. # 3 for H  read from file:
     /nfs/slac/g/suncatfs/aidank/scripts/gbrv/H.UPF
     MD5 check sum: 761ae9a214b05c3daf00ab9f6b793d6f
     Pseudo is Ultrasoft, Zval =  1.0
     Generated by new atomic code, or converted to UPF format
     Using radial grid of  615 points,  2 beta functions with: 
                l(1) =   0
                l(2) =   0
     Q(r) pseudized with  8 coefficients,  rinner =    0.700

     atomic species   valence    mass     pseudopotential
        Ag1           19.00   107.86800     Ag( 1.00)
        N1             5.00    14.00670     N ( 1.00)
        H1             1.00     1.00794     H ( 1.00)

     No symmetry found



   Cartesian axes

     site n.     atom                  positions (alat units)
         1           Ag1 tau(   1) = (   5.4594866   0.7084522   7.1205000  )
         2           Ag1 tau(   2) = (   2.5674199   0.7084522   7.1205000  )
         3           Ag1 tau(   3) = (   1.1213865   1.5433200   9.4818626  )
         4           Ag1 tau(   4) = (   4.0134533   1.5433200   9.4818626  )
         5           N1  tau(   5) = (   4.5592180   1.6357737  11.4504110  )
         6           H1  tau(   6) = (   4.3961380   1.9373723  12.3890862  )
         7           H1  tau(   7) = (   4.2761164   0.6685446  11.4793455  )
         8           H1  tau(   8) = (   2.9676536   2.1960895  11.0147869  )

     number of k points=     6  Fermi-Dirac smearing, width (Ry)=  0.0073
                       cart. coord. in units 2pi/alat
        k(    1) = (   0.0000000   0.0000000   0.0000000), wk =   0.2500000
        k(    2) = (   0.0000000   0.0998162   0.0000000), wk =   0.5000000
        k(    3) = (   0.0000000  -0.1996324   0.0000000), wk =   0.2500000
        k(    4) = (  -0.0864434   0.0499081   0.0000000), wk =   0.2500000
        k(    5) = (  -0.0864434   0.1497243   0.0000000), wk =   0.5000000
        k(    6) = (  -0.0864434  -0.1497243   0.0000000), wk =   0.2500000

     Dense  grid:   114205 G-vectors     FFT dimensions: (  54,  27, 180)

     Smooth grid:    40347 G-vectors     FFT dimensions: (  40,  20, 125)

     Largest allocated arrays     est. size (Mb)     dimensions
        Kohn-Sham Wavefunctions         0.49 Mb     (     450,   72)
        NL pseudopotentials             0.59 Mb     (     450,   86)
        Each V/rho on FFT grid          0.33 Mb     (   21870)
        Each G-vector array             0.07 Mb     (    9513)
        G-vector shells                 0.03 Mb     (    3999)
     Largest temporary arrays     est. size (Mb)     dimensions
        Auxiliary wavefunctions         1.98 Mb     (     450,  288)
        Each subspace H/S matrix        1.27 Mb     (     288,  288)
        Each <psi_i|beta_j> matrix      0.09 Mb     (      86,   72)
        Arrays for rho mixing           5.01 Mb     (   21870,   15)

     Initial potential from superposition of free atoms
     Check: negative starting charge=   -0.002415

     starting charge   81.99978, renormalised to   84.00000

     negative rho (up, down):  2.474E-03 0.000E+00
 
     Adding external electric field

     Computed dipole along edir(3) : 
        Dipole               -1.1856 Ry au,         -3.0136 Debye
        Dipole field         -0.0080 Ry au
 
        Potential amp.        0.5616 Ry
        Total length         35.2972 bohr
 
     Starting wfc are   59 randomized atomic wfcs +   13 random wfc

     total cpu time spent up to now is        1.0 secs

     per-process dynamical memory:    18.4 Mb

     Self-consistent Calculation

     iteration #  1     ecut=    29.40 Ry     beta=0.10
     Davidson diagonalization with overlap
     ethr =  1.00E-02,  avg # of iterations =  7.2

     negative rho (up, down):  1.096E-03 0.000E+00
 
     Adding external electric field

     Computed dipole along edir(3) : 
        Dipole                1.3588 Ry au,          3.4537 Debye
        Dipole field          0.0091 Ry au
 
        Potential amp.       -0.6436 Ry
        Total length         35.2972 bohr
 

     total cpu time spent up to now is        5.0 secs

     total energy              =   -1203.79155225 Ry
     Harris-Foulkes estimate   =   -1207.56739642 Ry
     estimated scf accuracy    <      21.54301258 Ry

     iteration #  2     ecut=    29.40 Ry     beta=0.10
     Davidson diagonalization with overlap
     ethr =  1.00E-02,  avg # of iterations =  3.5

     negative rho (up, down):  7.843E-04 0.000E+00
 
     Adding external electric field

     Computed dipole along edir(3) : 
        Dipole                0.0089 Ry au,          0.0227 Debye
        Dipole field          0.0001 Ry au
 
        Potential amp.       -0.0042 Ry
        Total length         35.2972 bohr
 

     total cpu time spent up to now is        6.8 secs

     total energy              =   -1205.06307873 Ry
     Harris-Foulkes estimate   =   -1207.26192235 Ry
     estimated scf accuracy    <      23.99916841 Ry

     iteration #  3     ecut=    29.40 Ry     beta=0.10
     Davidson diagonalization with overlap
     ethr =  1.00E-02,  avg # of iterations =  2.3

     negative rho (up, down):  8.348E-04 0.000E+00
 
     Adding external electric field

     Computed dipole along edir(3) : 
        Dipole                0.0291 Ry au,          0.0740 Debye
        Dipole field          0.0002 Ry au
 
        Potential amp.       -0.0138 Ry
        Total length         35.2972 bohr
 

     total cpu time spent up to now is        8.4 secs

     total energy              =   -1205.91237836 Ry
     Harris-Foulkes estimate   =   -1206.12960178 Ry
     estimated scf accuracy    <       1.17659306 Ry

     iteration #  4     ecut=    29.40 Ry     beta=0.10
     Davidson diagonalization with overlap
     ethr =  1.40E-03,  avg # of iterations =  2.5

     negative rho (up, down):  9.539E-04 0.000E+00
 
     Adding external electric field

     Computed dipole along edir(3) : 
        Dipole                0.2386 Ry au,          0.6064 Debye
        Dipole field          0.0016 Ry au
 
        Potential amp.       -0.1130 Ry
        Total length         35.2972 bohr
 

     total cpu time spent up to now is       10.0 secs

     total energy              =   -1205.72075485 Ry
     Harris-Foulkes estimate   =   -1205.94292263 Ry
     estimated scf accuracy    <       0.51367244 Ry

     iteration #  5     ecut=    29.40 Ry     beta=0.10
     Davidson diagonalization with overlap
     ethr =  6.12E-04,  avg # of iterations =  3.7

     negative rho (up, down):  9.938E-04 0.000E+00
 
     Adding external electric field

     Computed dipole along edir(3) : 
        Dipole                0.2122 Ry au,          0.5393 Debye
        Dipole field          0.0014 Ry au
 
        Potential amp.       -0.1005 Ry
        Total length         35.2972 bohr
 

     total cpu time spent up to now is       12.0 secs

     total energy              =   -1205.80863637 Ry
     Harris-Foulkes estimate   =   -1205.81173142 Ry
     estimated scf accuracy    <       0.03551302 Ry

     iteration #  6     ecut=    29.40 Ry     beta=0.10
     Davidson diagonalization with overlap
     ethr =  4.23E-05,  avg # of iterations =  4.5

     negative rho (up, down):  1.404E-03 0.000E+00
 
     Adding external electric field

     Computed dipole along edir(3) : 
        Dipole                0.2280 Ry au,          0.5794 Debye
        Dipole field          0.0015 Ry au
 
        Potential amp.       -0.1080 Ry
        Total length         35.2972 bohr
 

     total cpu time spent up to now is       13.8 secs

     total energy              =   -1205.80138646 Ry
     Harris-Foulkes estimate   =   -1205.80924304 Ry
     estimated scf accuracy    <       0.02280392 Ry

     iteration #  7     ecut=    29.40 Ry     beta=0.10
     Davidson diagonalization with overlap
     ethr =  2.71E-05,  avg # of iterations =  5.5

     negative rho (up, down):  1.451E-03 0.000E+00
 
     Adding external electric field

     Computed dipole along edir(3) : 
        Dipole                0.2303 Ry au,          0.5855 Debye
        Dipole field          0.0015 Ry au
 
        Potential amp.       -0.1091 Ry
        Total length         35.2972 bohr
 

     total cpu time spent up to now is       16.0 secs

     total energy              =   -1205.80322791 Ry
     Harris-Foulkes estimate   =   -1205.80391058 Ry
     estimated scf accuracy    <       0.00575613 Ry

     iteration #  8     ecut=    29.40 Ry     beta=0.10
     Davidson diagonalization with overlap
     ethr =  6.85E-06,  avg # of iterations =  2.8

     negative rho (up, down):  1.732E-03 0.000E+00
 
     Adding external electric field

     Computed dipole along edir(3) : 
        Dipole                0.1861 Ry au,          0.4729 Debye
        Dipole field          0.0012 Ry au
 
        Potential amp.       -0.0881 Ry
        Total length         35.2972 bohr
 

     total cpu time spent up to now is       17.6 secs

     total energy              =   -1205.80286522 Ry
     Harris-Foulkes estimate   =   -1205.80357415 Ry
     estimated scf accuracy    <       0.00242503 Ry

     iteration #  9     ecut=    29.40 Ry     beta=0.10
     Davidson diagonalization with overlap
     ethr =  2.89E-06,  avg # of iterations =  3.7

     negative rho (up, down):  1.932E-03 0.000E+00
 
     Adding external electric field

     Computed dipole along edir(3) : 
        Dipole                0.1701 Ry au,          0.4322 Debye
        Dipole field          0.0011 Ry au
 
        Potential amp.       -0.0805 Ry
        Total length         35.2972 bohr
 

     total cpu time spent up to now is       19.4 secs

     total energy              =   -1205.80313283 Ry
     Harris-Foulkes estimate   =   -1205.80322723 Ry
     estimated scf accuracy    <       0.00039475 Ry

     iteration # 10     ecut=    29.40 Ry     beta=0.10
     Davidson diagonalization with overlap
     ethr =  4.70E-07,  avg # of iterations =  2.8

     negative rho (up, down):  2.075E-03 0.000E+00
 
     Adding external electric field

     Computed dipole along edir(3) : 
        Dipole                0.1724 Ry au,          0.4383 Debye
        Dipole field          0.0012 Ry au
 
        Potential amp.       -0.0817 Ry
        Total length         35.2972 bohr
 

     total cpu time spent up to now is       21.0 secs

     total energy              =   -1205.80314963 Ry
     Harris-Foulkes estimate   =   -1205.80316357 Ry
     estimated scf accuracy    <       0.00020519 Ry

     iteration # 11     ecut=    29.40 Ry     beta=0.10
     Davidson diagonalization with overlap
     ethr =  2.44E-07,  avg # of iterations =  1.7

     negative rho (up, down):  2.208E-03 0.000E+00
 
     Adding external electric field

     Computed dipole along edir(3) : 
        Dipole                0.1704 Ry au,          0.4332 Debye
        Dipole field          0.0011 Ry au
 
        Potential amp.       -0.0807 Ry
        Total length         35.2972 bohr
 

     total cpu time spent up to now is       22.4 secs

     total energy              =   -1205.80316800 Ry
     Harris-Foulkes estimate   =   -1205.80317109 Ry
     estimated scf accuracy    <       0.00002195 Ry

     iteration # 12     ecut=    29.40 Ry     beta=0.10
     Davidson diagonalization with overlap
     ethr =  2.61E-08,  avg # of iterations =  2.0

     negative rho (up, down):  2.310E-03 0.000E+00
 
     Adding external electric field

     Computed dipole along edir(3) : 
        Dipole                0.1686 Ry au,          0.4286 Debye
        Dipole field          0.0011 Ry au
 
        Potential amp.       -0.0799 Ry
        Total length         35.2972 bohr
 

     total cpu time spent up to now is       23.9 secs

     total energy              =   -1205.80317239 Ry
     Harris-Foulkes estimate   =   -1205.80317445 Ry
     estimated scf accuracy    <       0.00001325 Ry

     iteration # 13     ecut=    29.40 Ry     beta=0.10
     Davidson diagonalization with overlap
     ethr =  1.58E-08,  avg # of iterations =  1.0

     negative rho (up, down):  2.336E-03 0.000E+00
 
     Adding external electric field

     Computed dipole along edir(3) : 
        Dipole                0.1679 Ry au,          0.4269 Debye
        Dipole field          0.0011 Ry au
 
        Potential amp.       -0.0796 Ry
        Total length         35.2972 bohr
 

     total cpu time spent up to now is       25.2 secs

     total energy              =   -1205.80317369 Ry
     Harris-Foulkes estimate   =   -1205.80317424 Ry
     estimated scf accuracy    <       0.00000261 Ry

     iteration # 14     ecut=    29.40 Ry     beta=0.10
     Davidson diagonalization with overlap
     ethr =  3.11E-09,  avg # of iterations =  2.0

     negative rho (up, down):  2.364E-03 0.000E+00
 
     Adding external electric field

     Computed dipole along edir(3) : 
        Dipole                0.1691 Ry au,          0.4299 Debye
        Dipole field          0.0011 Ry au
 
        Potential amp.       -0.0801 Ry
        Total length         35.2972 bohr
 

     total cpu time spent up to now is       26.7 secs

     End of self-consistent calculation

          k = 0.0000 0.0000 0.0000 (  5071 PWs)   bands (ev):

   -90.4973 -90.2308 -90.1668 -90.1186 -54.0031 -53.9714 -53.9134 -53.7558
   -53.6711 -53.6457 -53.6230 -53.6055 -53.6029 -53.5822 -53.5366 -53.5317
   -15.4976  -6.2419  -5.2867  -4.6065  -4.5039  -4.3710  -4.1445  -3.5266
    -3.1482  -2.9913  -2.9575  -2.8748  -2.8534  -2.7574  -2.6107  -2.1293
    -1.9725  -1.8303  -1.7572  -1.5301  -1.4941  -1.4422  -1.2167  -1.1160
    -0.3047   0.6938   1.4511   2.6658   3.4950   4.5788   5.3359   5.8208
     6.4565   6.6675   7.5709   8.0567   9.0873   9.3361   9.4872   9.9110
    10.5159  11.0493  11.1297  11.4159  11.6274  12.2788  12.6350  12.8228
    13.2015  13.8400  13.9636  14.5176  15.0760  15.1417  15.8277  16.5923

          k = 0.0000 0.0998 0.0000 (  5031 PWs)   bands (ev):

   -90.4944 -90.2276 -90.1643 -90.1159 -53.9985 -53.9641 -53.9528 -53.7377
   -53.7091 -53.6484 -53.6430 -53.6334 -53.6030 -53.5865 -53.5642 -53.5362
   -15.0876  -6.2915  -4.8515  -4.2572  -4.0895  -3.7937  -3.6902  -3.4270
    -3.3608  -3.2525  -2.9622  -2.8326  -2.7028  -2.5281  -2.4856  -2.3716
    -2.2760  -2.1737  -2.0211  -1.9048  -1.7523  -1.5373  -1.3941  -0.8774
    -0.7022   1.5461   2.1417   3.2548   4.9812   6.0127   6.5429   6.9518
     7.8997   8.1868   8.4025   8.7461   9.0723   9.4129   9.6906  10.6584
    10.6690  10.8909  11.1313  11.4828  12.0478  12.3475  12.4535  13.2778
    13.4727  13.6538  14.0843  14.4159  14.8699  15.0526  15.4131  15.5473

          k = 0.0000-0.1996 0.0000 (  5048 PWs)   bands (ev):

   -90.4915 -90.2246 -90.1615 -90.1131 -54.0012 -53.9916 -53.9591 -53.7595
   -53.7423 -53.6647 -53.6396 -53.6357 -53.6165 -53.5952 -53.5627 -53.5435
   -14.5975  -6.9230  -5.0573  -4.5799  -4.4187  -4.3592  -4.1112  -3.9139
    -3.7448  -3.3949  -2.9287  -2.7188  -2.5296  -2.1850  -1.8889  -1.6866
    -1.5936  -1.5706  -1.3105  -1.1712  -1.1135  -1.0940  -0.8666  -0.4681
     2.1493   2.4988   3.0440   3.3593   4.8173   5.9457   6.3381   6.5701
     8.0480   8.4197   8.9662   9.7514  10.1133  10.4381  10.7111  10.8899
    11.0631  11.1020  11.2374  11.2597  11.5093  12.2367  12.3503  12.4944
    12.5745  12.7064  13.0729  13.2372  13.5813  13.8039  14.2426  14.4539

          k =-0.0864 0.0499 0.0000 (  5024 PWs)   bands (ev):

   -90.4972 -90.2303 -90.1674 -90.1187 -54.0023 -53.9623 -53.9121 -53.7219
   -53.6666 -53.6594 -53.6435 -53.6135 -53.6065 -53.5861 -53.5352 -53.5312
   -15.4866  -6.1456  -5.0872  -4.1915  -3.9824  -3.8606  -3.7442  -3.4051
    -3.2444  -3.1930  -2.9851  -2.8974  -2.6209  -2.4570  -2.4130  -2.3530
    -2.2526  -2.1889  -2.1216  -2.0289  -1.9354  -1.7550  -1.4913  -1.4043
    -1.0540  -0.2764   1.4708   2.4205   3.6218   5.2907   5.9329   6.2060
     6.6661   6.8396   7.1652   7.8905   8.2885   8.5466   9.1804   9.7497
    10.5025  10.8951  11.2358  12.0124  12.2339  12.6746  13.8160  14.0178
    14.5406  14.7639  15.5389  15.8512  16.0599  16.4873  16.5370  17.1473

          k =-0.0864 0.1497 0.0000 (  5031 PWs)   bands (ev):

   -90.4944 -90.2276 -90.1643 -90.1159 -53.9985 -53.9622 -53.9548 -53.7362
   -53.7100 -53.6536 -53.6417 -53.6300 -53.6027 -53.5865 -53.5643 -53.5363
   -15.0876  -6.2905  -4.8424  -4.2660  -4.0058  -3.7528  -3.7011  -3.5455
    -3.3566  -3.2453  -2.9646  -2.8578  -2.6882  -2.5528  -2.4519  -2.3516
    -2.3353  -2.1690  -2.0734  -1.9124  -1.8211  -1.5134  -1.4286  -0.8634
    -0.5520   1.7133   2.0680   3.3500   4.8754   5.9694   6.5040   6.9021
     7.8094   8.1047   8.3519   8.7467   9.0154   9.4435   9.6445  10.5659
    10.6927  10.9953  11.1980  11.6539  12.0434  12.2913  12.5291  13.4216
    13.6061  13.7358  14.1617  14.4803  14.8476  15.1540  15.4265  15.5085

          k =-0.0864-0.1497 0.0000 (  5038 PWs)   bands (ev):

   -90.4915 -90.2246 -90.1615 -90.1132 -53.9996 -53.9906 -53.9541 -53.7483
   -53.7147 -53.6916 -53.6510 -53.6377 -53.6226 -53.5977 -53.5625 -53.5426
   -14.6041  -6.9253  -4.9839  -4.0590  -3.7785  -3.7035  -3.5475  -3.4916
    -3.4794  -3.3044  -2.9654  -2.9461  -2.7682  -2.7098  -2.5590  -2.5011
    -2.3138  -2.1183  -1.8281  -1.6902  -1.4544  -1.2646  -0.7037  -0.3895
     1.6932   2.0154   3.3252   4.3945   5.5604   7.6589   8.1173   8.2116
     8.3540   8.5039   8.8719   9.1560   9.5517   9.6119   9.8702  10.0173
    10.5403  10.8215  11.0135  11.4299  11.8510  11.9502  12.3405  12.4763
    12.9384  13.6127  13.6939  13.7579  14.2635  14.5690  14.7901  14.8610

     the Fermi energy is     1.9574 ev

!    total energy              =   -1205.80318034 Ry
     Harris-Foulkes estimate   =   -1205.80317137 Ry
     estimated scf accuracy    <       0.00000034 Ry

     The total energy is the sum of the following terms:

     one-electron contribution =   -6044.45424524 Ry
     hartree contribution      =    3020.23580777 Ry
     xc contribution           =    -123.30860255 Ry
     ewald contribution        =    1941.73119240 Ry
     electric field correction =       0.00019192 Ry
     smearing contrib. (-TS)   =      -0.00752464 Ry

     convergence has been achieved in  14 iterations

     Forces acting on atoms (Ry/au):


     negative rho (up, down):  2.364E-03 0.000E+00
     atom    1 type  1   force =    -0.00229093    0.00216792   -0.00912261
     atom    2 type  1   force =     0.00307055   -0.00161997   -0.01222627
     atom    3 type  1   force =     0.00592696   -0.00877811    0.02691664
     atom    4 type  1   force =    -0.02954561    0.02131434   -0.08418149
     atom    5 type  2   force =     0.00784503    0.00795259    0.02953648
     atom    6 type  3   force =    -0.01106052    0.03826371    0.04936717
     atom    7 type  3   force =     0.00278527   -0.05448463    0.02148719
     atom    8 type  3   force =     0.02326924   -0.00481586   -0.02177710

     Total force =     0.137851     Total SCF correction =     0.003363
 !ASE
     Check: negative starting charge=   -0.002415
     NEW-OLD atomic charge density approx. for the potential
     Check: negative starting charge=   -0.002378

     negative rho (up, down):  2.333E-03 0.000E+00
 
     Adding external electric field

     Computed dipole along edir(3) : 
        Dipole                0.1691 Ry au,          0.4299 Debye
        Dipole field          0.0011 Ry au
 
        Potential amp.       -0.0801 Ry
        Total length         35.2972 bohr
 

     total cpu time spent up to now is       27.9 secs

     per-process dynamical memory:    31.3 Mb

     Self-consistent Calculation

     iteration #  1     ecut=    29.40 Ry     beta=0.10
     Davidson diagonalization with overlap
     ethr =  3.11E-09,  avg # of iterations =  6.3

     negative rho (up, down):  2.317E-03 0.000E+00
 
     Adding external electric field

     Computed dipole along edir(3) : 
        Dipole                0.2307 Ry au,          0.5864 Debye
        Dipole field          0.0015 Ry au
 
        Potential amp.       -0.1093 Ry
        Total length         35.2972 bohr
 

     total cpu time spent up to now is       31.3 secs

     total energy              =   -1205.80494458 Ry
     Harris-Foulkes estimate   =   -1205.81426868 Ry
     estimated scf accuracy    <       0.06042521 Ry

     iteration #  2     ecut=    29.40 Ry     beta=0.10
     Davidson diagonalization with overlap
     ethr =  7.19E-05,  avg # of iterations =  2.2

     negative rho (up, down):  2.308E-03 0.000E+00
 
     Adding external electric field

     Computed dipole along edir(3) : 
        Dipole                0.1617 Ry au,          0.4109 Debye
        Dipole field          0.0011 Ry au
 
        Potential amp.       -0.0766 Ry
        Total length         35.2972 bohr
 

     total cpu time spent up to now is       32.8 secs

     total energy              =   -1205.80603692 Ry
     Harris-Foulkes estimate   =   -1205.80985104 Ry
     estimated scf accuracy    <       0.03494615 Ry

     iteration #  3     ecut=    29.40 Ry     beta=0.10
     Davidson diagonalization with overlap
     ethr =  4.16E-05,  avg # of iterations =  2.8

     negative rho (up, down):  2.308E-03 0.000E+00
 
     Adding external electric field

     Computed dipole along edir(3) : 
        Dipole                0.1301 Ry au,          0.3306 Debye
        Dipole field          0.0009 Ry au
 
        Potential amp.       -0.0616 Ry
        Total length         35.2972 bohr
 

     total cpu time spent up to now is       34.4 secs

     total energy              =   -1205.80414631 Ry
     Harris-Foulkes estimate   =   -1205.80751051 Ry
     estimated scf accuracy    <       0.01248939 Ry

     iteration #  4     ecut=    29.40 Ry     beta=0.10
     Davidson diagonalization with overlap
     ethr =  1.49E-05,  avg # of iterations =  3.7

     negative rho (up, down):  2.348E-03 0.000E+00
 
     Adding external electric field

     Computed dipole along edir(3) : 
        Dipole                0.1266 Ry au,          0.3219 Debye
        Dipole field          0.0008 Ry au
 
        Potential amp.       -0.0600 Ry
        Total length         35.2972 bohr
 

     total cpu time spent up to now is       36.2 secs

     total energy              =   -1205.80480877 Ry
     Harris-Foulkes estimate   =   -1205.80521926 Ry
     estimated scf accuracy    <       0.00257755 Ry

     iteration #  5     ecut=    29.40 Ry     beta=0.10
     Davidson diagonalization with overlap
     ethr =  3.07E-06,  avg # of iterations =  3.7

     negative rho (up, down):  2.489E-03 0.000E+00
 
     Adding external electric field

     Computed dipole along edir(3) : 
        Dipole                0.1306 Ry au,          0.3319 Debye
        Dipole field          0.0009 Ry au
 
        Potential amp.       -0.0619 Ry
        Total length         35.2972 bohr
 

     total cpu time spent up to now is       37.9 secs

     total energy              =   -1205.80482341 Ry
     Harris-Foulkes estimate   =   -1205.80494434 Ry
     estimated scf accuracy    <       0.00098745 Ry

     iteration #  6     ecut=    29.40 Ry     beta=0.10
     Davidson diagonalization with overlap
     ethr =  1.18E-06,  avg # of iterations =  2.8

     negative rho (up, down):  2.477E-03 0.000E+00
 
     Adding external electric field

     Computed dipole along edir(3) : 
        Dipole                0.1393 Ry au,          0.3541 Debye
        Dipole field          0.0009 Ry au
 
        Potential amp.       -0.0660 Ry
        Total length         35.2972 bohr
 

     total cpu time spent up to now is       39.6 secs

     total energy              =   -1205.80489278 Ry
     Harris-Foulkes estimate   =   -1205.80492265 Ry
     estimated scf accuracy    <       0.00048233 Ry

     iteration #  7     ecut=    29.40 Ry     beta=0.10
     Davidson diagonalization with overlap
     ethr =  5.74E-07,  avg # of iterations =  2.5

     negative rho (up, down):  2.493E-03 0.000E+00
 
     Adding external electric field

     Computed dipole along edir(3) : 
        Dipole                0.1477 Ry au,          0.3755 Debye
        Dipole field          0.0010 Ry au
 
        Potential amp.       -0.0700 Ry
        Total length         35.2972 bohr
 

     total cpu time spent up to now is       41.2 secs

     total energy              =   -1205.80491468 Ry
     Harris-Foulkes estimate   =   -1205.80490198 Ry
     estimated scf accuracy    <       0.00005521 Ry

     iteration #  8     ecut=    29.40 Ry     beta=0.10
     Davidson diagonalization with overlap
     ethr =  6.57E-08,  avg # of iterations =  3.0

     negative rho (up, down):  2.466E-03 0.000E+00
 
     Adding external electric field

     Computed dipole along edir(3) : 
        Dipole                0.1473 Ry au,          0.3745 Debye
        Dipole field          0.0010 Ry au
 
        Potential amp.       -0.0698 Ry
        Total length         35.2972 bohr
 

     total cpu time spent up to now is       42.9 secs

     total energy              =   -1205.80492172 Ry
     Harris-Foulkes estimate   =   -1205.80492140 Ry
     estimated scf accuracy    <       0.00000731 Ry

     iteration #  9     ecut=    29.40 Ry     beta=0.10
     Davidson diagonalization with overlap
     ethr =  8.71E-09,  avg # of iterations =  1.0

     negative rho (up, down):  2.446E-03 0.000E+00
 
     Adding external electric field

     Computed dipole along edir(3) : 
        Dipole                0.1483 Ry au,          0.3769 Debye
        Dipole field          0.0010 Ry au
 
        Potential amp.       -0.0702 Ry
        Total length         35.2972 bohr
 

     total cpu time spent up to now is       44.2 secs

     total energy              =   -1205.80492268 Ry
     Harris-Foulkes estimate   =   -1205.80492009 Ry
     estimated scf accuracy    <       0.00000400 Ry

     iteration # 10     ecut=    29.40 Ry     beta=0.10
     Davidson diagonalization with overlap
     ethr =  4.76E-09,  avg # of iterations =  2.0

     negative rho (up, down):  2.328E-03 0.000E+00
 
     Adding external electric field

     Computed dipole along edir(3) : 
        Dipole                0.1449 Ry au,          0.3683 Debye
        Dipole field          0.0010 Ry au
 
        Potential amp.       -0.0686 Ry
        Total length         35.2972 bohr
 

     total cpu time spent up to now is       45.6 secs

     End of self-consistent calculation

          k = 0.0000 0.0000 0.0000 (  5071 PWs)   bands (ev):

   -90.5625 -90.2958 -90.2394 -90.1946 -54.0654 -54.0306 -53.9757 -53.8230
   -53.7384 -53.7096 -53.6933 -53.6804 -53.6770 -53.6543 -53.6104 -53.6067
   -14.5320  -5.8377  -5.1834  -4.6281  -4.5722  -4.4159  -4.1907  -3.4976
    -3.0701  -3.0406  -3.0019  -2.9391  -2.9182  -2.8159  -2.6649  -2.1336
    -2.0453  -1.8423  -1.7927  -1.5872  -1.5248  -1.4833  -1.2874  -1.1857
     0.1460   0.5642   1.4632   2.5878   3.3494   4.6077   5.3449   5.7814
     6.4042   6.6920   7.3108   7.8753   8.0992   9.0032   9.3342   9.7681
    10.5089  10.9868  11.1259  11.4204  11.5754  12.2551  12.6090  12.8096
    13.1605  13.7294  13.9621  14.3703  14.9468  15.1267  15.7762  16.4363

          k = 0.0000 0.0998 0.0000 (  5031 PWs)   bands (ev):

   -90.5595 -90.2925 -90.2369 -90.1919 -54.0597 -54.0230 -54.0164 -53.8047
   -53.7755 -53.7222 -53.7101 -53.7024 -53.6779 -53.6606 -53.6385 -53.6080
   -14.0410  -5.6582  -4.7862  -4.1550  -4.1188  -3.8453  -3.7493  -3.4858
    -3.4118  -3.2879  -3.0323  -2.8914  -2.7650  -2.5923  -2.5420  -2.4294
    -2.3139  -2.2443  -2.0758  -1.9710  -1.7815  -1.6005  -1.4532  -0.9941
    -0.7233   1.4574   2.0142   3.3204   4.8582   5.9851   6.5372   6.9364
     7.7816   8.1269   8.3064   8.6831   8.9951   9.4014   9.6666  10.4020
    10.6073  10.6947  11.0387  11.1793  11.8505  12.0521  12.3904  13.0873
    13.3259  13.5875  13.9858  14.2664  14.7904  14.9828  15.4156  15.5427

          k = 0.0000-0.1996 0.0000 (  5048 PWs)   bands (ev):

   -90.5567 -90.2895 -90.2341 -90.1892 -54.0635 -54.0527 -54.0196 -53.8268
   -53.8109 -53.7352 -53.7116 -53.7007 -53.6927 -53.6709 -53.6337 -53.6155
   -13.4242  -6.4496  -4.8347  -4.6324  -4.4831  -4.4121  -4.1724  -3.9739
    -3.7480  -3.4249  -2.9533  -2.7945  -2.5987  -2.2268  -1.9589  -1.7523
    -1.6603  -1.6398  -1.3796  -1.2421  -1.1863  -1.1657  -0.9945  -0.5087
     2.0456   2.4128   2.9651   3.2749   4.7972   5.8518   6.2710   6.5085
     7.9499   8.2916   8.5339   9.7687  10.0766  10.3868  10.6695  10.8525
    11.0359  11.0948  11.2278  11.2949  11.5060  12.1657  12.2700  12.4335
    12.5423  12.6865  13.0081  13.1268  13.4928  13.7679  14.1993  14.3867

          k =-0.0864 0.0499 0.0000 (  5024 PWs)   bands (ev):

   -90.5624 -90.2952 -90.2400 -90.1947 -54.0615 -54.0245 -53.9744 -53.7869
   -53.7335 -53.7318 -53.7086 -53.6875 -53.6811 -53.6580 -53.6100 -53.6050
   -14.5178  -5.5594  -5.0781  -4.2401  -4.0569  -3.9276  -3.8035  -3.4649
    -3.2858  -3.2224  -3.0463  -2.7979  -2.6638  -2.5183  -2.4836  -2.4132
    -2.3251  -2.2443  -2.1828  -2.0440  -1.9878  -1.7400  -1.4788  -1.4753
    -1.1025   0.0856   1.4003   2.2072   3.7301   5.0846   5.9045   6.2184
     6.6768   6.8398   7.1328   7.7630   8.0077   8.2635   8.9576   9.1566
    10.5092  10.8724  11.1739  11.9087  12.1554  12.5360  13.7700  14.0178
    14.4903  14.6056  15.3966  15.5145  15.9260  16.3236  16.4526  17.0028

          k =-0.0864 0.1497 0.0000 (  5031 PWs)   bands (ev):

   -90.5595 -90.2925 -90.2369 -90.1919 -54.0591 -54.0241 -54.0160 -53.8029
   -53.7766 -53.7272 -53.7075 -53.7008 -53.6775 -53.6607 -53.6386 -53.6081
   -14.0410  -5.6675  -4.7945  -4.1990  -4.0021  -3.7823  -3.7317  -3.5994
    -3.4047  -3.2919  -3.0277  -2.9141  -2.7378  -2.6127  -2.5218  -2.4037
    -2.3490  -2.2344  -2.1322  -1.9824  -1.8832  -1.5823  -1.4887  -0.9136
    -0.6717   1.6157   1.9504   3.4075   4.7620   5.9487   6.5050   6.8705
     7.6735   8.0717   8.2887   8.6611   8.9254   9.3757   9.6439  10.4158
    10.6191  10.8829  11.0472  11.2946  11.8792  12.1322  12.3268  13.1450
    13.4869  13.6989  14.1165  14.3412  14.7431  15.0345  15.4157  15.4785

          k =-0.0864-0.1497 0.0000 (  5038 PWs)   bands (ev):

   -90.5567 -90.2895 -90.2341 -90.1892 -54.0613 -54.0505 -54.0161 -53.8150
   -53.7797 -53.7661 -53.7236 -53.7030 -53.6989 -53.6731 -53.6335 -53.6147
   -13.4325  -6.4550  -4.6759  -4.1173  -3.8480  -3.7693  -3.6165  -3.5637
    -3.5569  -3.3431  -3.0357  -2.9781  -2.8368  -2.7771  -2.6201  -2.5661
    -2.3665  -2.1800  -1.8923  -1.7527  -1.5239  -1.3357  -0.8753  -0.3652
     1.6389   1.9237   3.3352   4.3153   5.4913   7.5959   7.8707   8.0864
     8.2383   8.4276   8.8353   9.1149   9.5361   9.5716   9.7706   9.8607
    10.4644  10.7753  10.9569  11.3322  11.6167  11.8861  12.2393  12.2962
    12.8502  13.5122  13.5588  13.6908  14.2430  14.5548  14.7286  14.7476

     the Fermi energy is     1.8510 ev

!    total energy              =   -1205.80492854 Ry
     Harris-Foulkes estimate   =   -1205.80492982 Ry
     estimated scf accuracy    <       0.00000074 Ry

     The total energy is the sum of the following terms:

     one-electron contribution =   -6019.17695146 Ry
     hartree contribution      =    3007.45902868 Ry
     xc contribution           =    -123.12656949 Ry
     ewald contribution        =    1929.04769355 Ry
     electric field correction =       0.00014087 Ry
     smearing contrib. (-TS)   =      -0.00827071 Ry

     convergence has been achieved in  10 iterations

     Forces acting on atoms (Ry/au):


     negative rho (up, down):  2.328E-03 0.000E+00
     atom    1 type  1   force =    -0.00230809    0.00222644   -0.00853224
     atom    2 type  1   force =     0.00293109   -0.00179194   -0.01451255
     atom    3 type  1   force =     0.00556935   -0.00816957    0.02496430
     atom    4 type  1   force =    -0.01959616    0.01596986   -0.05121709
     atom    5 type  2   force =    -0.04678878   -0.08586481    0.09488622
     atom    6 type  3   force =     0.00028795   -0.02062511   -0.06146534
     atom    7 type  3   force =     0.03608301    0.10126582    0.02489419
     atom    8 type  3   force =     0.02382163   -0.00301068   -0.00901749

     Total force =     0.199729     Total SCF correction =     0.003886
 !ASE
     Check: negative starting charge=   -0.002378
     NEW-OLD atomic charge density approx. for the potential
     Check: negative starting charge=   -0.002400

     negative rho (up, down):  2.406E-03 0.000E+00
 
     Adding external electric field

     Computed dipole along edir(3) : 
        Dipole                0.1449 Ry au,          0.3683 Debye
        Dipole field          0.0010 Ry au
 
        Potential amp.       -0.0686 Ry
        Total length         35.2972 bohr
 

     total cpu time spent up to now is       46.9 secs

     per-process dynamical memory:    31.3 Mb

     Self-consistent Calculation

     iteration #  1     ecut=    29.40 Ry     beta=0.10
     Davidson diagonalization with overlap
     ethr =  4.76E-09,  avg # of iterations =  6.2

     negative rho (up, down):  2.401E-03 0.000E+00
 
     Adding external electric field

     Computed dipole along edir(3) : 
        Dipole                0.1217 Ry au,          0.3093 Debye
        Dipole field          0.0008 Ry au
 
        Potential amp.       -0.0576 Ry
        Total length         35.2972 bohr
 

     total cpu time spent up to now is       50.1 secs

     total energy              =   -1205.81366889 Ry
     Harris-Foulkes estimate   =   -1205.81542924 Ry
     estimated scf accuracy    <       0.01140807 Ry

     iteration #  2     ecut=    29.40 Ry     beta=0.10
     Davidson diagonalization with overlap
     ethr =  1.36E-05,  avg # of iterations =  2.3

     negative rho (up, down):  2.396E-03 0.000E+00
 
     Adding external electric field

     Computed dipole along edir(3) : 
        Dipole                0.1505 Ry au,          0.3825 Debye
        Dipole field          0.0010 Ry au
 
        Potential amp.       -0.0713 Ry
        Total length         35.2972 bohr
 

     total cpu time spent up to now is       51.7 secs

     total energy              =   -1205.81374877 Ry
     Harris-Foulkes estimate   =   -1205.81434870 Ry
     estimated scf accuracy    <       0.00626244 Ry

     iteration #  3     ecut=    29.40 Ry     beta=0.10
     Davidson diagonalization with overlap
     ethr =  7.46E-06,  avg # of iterations =  3.2

     negative rho (up, down):  2.391E-03 0.000E+00
 
     Adding external electric field

     Computed dipole along edir(3) : 
        Dipole                0.1646 Ry au,          0.4183 Debye
        Dipole field          0.0011 Ry au
 
        Potential amp.       -0.0779 Ry
        Total length         35.2972 bohr
 

     total cpu time spent up to now is       53.3 secs

     total energy              =   -1205.81326802 Ry
     Harris-Foulkes estimate   =   -1205.81395636 Ry
     estimated scf accuracy    <       0.00278591 Ry

     iteration #  4     ecut=    29.40 Ry     beta=0.10
     Davidson diagonalization with overlap
     ethr =  3.32E-06,  avg # of iterations =  3.5

     negative rho (up, down):  2.391E-03 0.000E+00
 
     Adding external electric field

     Computed dipole along edir(3) : 
        Dipole                0.1686 Ry au,          0.4286 Debye
        Dipole field          0.0011 Ry au
 
        Potential amp.       -0.0799 Ry
        Total length         35.2972 bohr
 

     total cpu time spent up to now is       55.1 secs

     total energy              =   -1205.81344240 Ry
     Harris-Foulkes estimate   =   -1205.81351149 Ry
     estimated scf accuracy    <       0.00059406 Ry

     iteration #  5     ecut=    29.40 Ry     beta=0.10
     Davidson diagonalization with overlap
     ethr =  7.07E-07,  avg # of iterations =  2.8

     negative rho (up, down):  2.401E-03 0.000E+00
 
     Adding external electric field

     Computed dipole along edir(3) : 
        Dipole                0.1649 Ry au,          0.4192 Debye
        Dipole field          0.0011 Ry au
 
        Potential amp.       -0.0781 Ry
        Total length         35.2972 bohr
 

     total cpu time spent up to now is       56.6 secs

     total energy              =   -1205.81346188 Ry
     Harris-Foulkes estimate   =   -1205.81348285 Ry
     estimated scf accuracy    <       0.00019743 Ry

     iteration #  6     ecut=    29.40 Ry     beta=0.10
     Davidson diagonalization with overlap
     ethr =  2.35E-07,  avg # of iterations =  2.0

     negative rho (up, down):  2.399E-03 0.000E+00
 
     Adding external electric field

     Computed dipole along edir(3) : 
        Dipole                0.1633 Ry au,          0.4151 Debye
        Dipole field          0.0011 Ry au
 
        Potential amp.       -0.0774 Ry
        Total length         35.2972 bohr
 

     total cpu time spent up to now is       58.1 secs

     total energy              =   -1205.81347372 Ry
     Harris-Foulkes estimate   =   -1205.81347855 Ry
     estimated scf accuracy    <       0.00004497 Ry

     iteration #  7     ecut=    29.40 Ry     beta=0.10
     Davidson diagonalization with overlap
     ethr =  5.35E-08,  avg # of iterations =  2.0

     negative rho (up, down):  2.394E-03 0.000E+00
 
     Adding external electric field

     Computed dipole along edir(3) : 
        Dipole                0.1596 Ry au,          0.4058 Debye
        Dipole field          0.0011 Ry au
 
        Potential amp.       -0.0756 Ry
        Total length         35.2972 bohr
 

     total cpu time spent up to now is       59.6 secs

     total energy              =   -1205.81347588 Ry
     Harris-Foulkes estimate   =   -1205.81348593 Ry
     estimated scf accuracy    <       0.00001489 Ry

     iteration #  8     ecut=    29.40 Ry     beta=0.10
     Davidson diagonalization with overlap
     ethr =  1.77E-08,  avg # of iterations =  2.0

     negative rho (up, down):  2.386E-03 0.000E+00
 
     Adding external electric field

     Computed dipole along edir(3) : 
        Dipole                0.1596 Ry au,          0.4056 Debye
        Dipole field          0.0011 Ry au
 
        Potential amp.       -0.0756 Ry
        Total length         35.2972 bohr
 

     total cpu time spent up to now is       61.0 secs

     total energy              =   -1205.81347767 Ry
     Harris-Foulkes estimate   =   -1205.81347766 Ry
     estimated scf accuracy    <       0.00000150 Ry

     iteration #  9     ecut=    29.40 Ry     beta=0.10
     Davidson diagonalization with overlap
     ethr =  1.78E-09,  avg # of iterations =  2.0

     negative rho (up, down):  2.343E-03 0.000E+00
 
     Adding external electric field

     Computed dipole along edir(3) : 
        Dipole                0.1594 Ry au,          0.4052 Debye
        Dipole field          0.0011 Ry au
 
        Potential amp.       -0.0755 Ry
        Total length         35.2972 bohr
 

     total cpu time spent up to now is       62.5 secs

     End of self-consistent calculation

          k = 0.0000 0.0000 0.0000 (  5071 PWs)   bands (ev):

   -90.5237 -90.2602 -90.2006 -90.1520 -54.0238 -53.9987 -53.9389 -53.7864
   -53.7015 -53.6744 -53.6553 -53.6388 -53.6370 -53.6148 -53.5689 -53.5652
   -14.9947  -6.0111  -5.2520  -4.6098  -4.5356  -4.3895  -4.1637  -3.4972
    -3.0788  -3.0190  -2.9868  -2.9038  -2.8845  -2.7849  -2.6340  -2.1239
    -2.0046  -1.8331  -1.7715  -1.5525  -1.5025  -1.4684  -1.2475  -1.1474
    -0.1093   0.6323   1.4598   2.6314   3.4295   4.5928   5.3430   5.8024
     6.4329   6.6868   7.4698   8.0190   8.6179   9.1548   9.3647   9.8391
    10.5074  11.0223  11.1274  11.4108  11.5952  12.2671  12.6222  12.8174
    13.1842  13.7881  13.9633  14.4432  15.0300  15.1127  15.8050  16.5245

          k = 0.0000 0.0998 0.0000 (  5031 PWs)   bands (ev):

   -90.5208 -90.2570 -90.1981 -90.1493 -54.0191 -53.9905 -53.9793 -53.7681
   -53.7391 -53.6824 -53.6732 -53.6650 -53.6364 -53.6196 -53.5974 -53.5681
   -14.5425  -5.9804  -4.7951  -4.2006  -4.1049  -3.8174  -3.7173  -3.4535
    -3.3836  -3.2676  -2.9938  -2.8583  -2.7308  -2.5565  -2.5092  -2.3971
    -2.2930  -2.2048  -2.0455  -1.9343  -1.7645  -1.5652  -1.4204  -0.9294
    -0.7119   1.5046   2.0821   3.2905   4.9271   6.0034   6.5396   6.9475
     7.8528   8.1566   8.3599   8.7225   9.0393   9.4051   9.6834  10.6264
    10.6373  10.7809  11.1089  11.2944  11.9684  12.1728  12.4178  13.2063
    13.3844  13.6055  14.0315  14.3330  14.8329  15.0143  15.4120  15.5447

          k = 0.0000-0.1996 0.0000 (  5048 PWs)   bands (ev):

   -90.5179 -90.2540 -90.1953 -90.1466 -54.0261 -54.0125 -53.9869 -53.7900
   -53.7735 -53.6970 -53.6728 -53.6648 -53.6502 -53.6289 -53.5953 -53.5750
   -13.9882  -6.6950  -4.9196  -4.6130  -4.4475  -4.3815  -4.1388  -3.9395
    -3.7437  -3.4080  -2.9400  -2.7520  -2.5603  -2.2035  -1.9200  -1.7157
    -1.6232  -1.6018  -1.3401  -1.2029  -1.1466  -1.1258  -0.9240  -0.4925
     2.1008   2.4592   3.0080   3.3206   4.8171   5.9055   6.3079   6.5466
     8.0247   8.3679   8.7431   9.7673  10.0952  10.4188  10.6897  10.8749
    11.0555  11.0967  11.2345  11.2741  11.5066  12.2103  12.3183  12.4802
    12.5539  12.6985  13.0590  13.1834  13.5382  13.7880  14.2245  14.4195

          k =-0.0864 0.0499 0.0000 (  5024 PWs)   bands (ev):

   -90.5236 -90.2596 -90.2011 -90.1521 -54.0220 -53.9905 -53.9377 -53.7513
   -53.6968 -53.6929 -53.6725 -53.6466 -53.6409 -53.6187 -53.5678 -53.5643
   -14.9821  -5.8514  -5.0726  -4.2115  -4.0148  -3.8908  -3.7698  -3.4295
    -3.2509  -3.2051  -3.0107  -2.8342  -2.6397  -2.4840  -2.4438  -2.3792
    -2.2845  -2.2112  -2.1472  -2.0262  -1.9603  -1.7444  -1.4853  -1.4366
    -1.0760  -0.1319   1.4375   2.3203   3.6816   5.2065   5.9268   6.2083
     6.6695   6.8428   7.1522   7.8849   8.2567   8.3715   9.0955   9.3019
    10.5053  10.8827  11.2032  11.9650  12.1983  12.6048  13.7966  14.0170
    14.5193  14.6900  15.4933  15.6683  15.9898  16.4037  16.4966  17.0822

          k =-0.0864 0.1497 0.0000 (  5031 PWs)   bands (ev):

   -90.5208 -90.2570 -90.1981 -90.1493 -54.0187 -53.9903 -53.9800 -53.7664
   -53.7401 -53.6876 -53.6712 -53.6625 -53.6361 -53.6197 -53.5974 -53.5681
   -14.5425  -5.9826  -4.7971  -4.2221  -4.0029  -3.7598  -3.7254  -3.5699
    -3.3773  -3.2666  -2.9928  -2.8824  -2.7098  -2.5794  -2.4827  -2.3687
    -2.3479  -2.1981  -2.1002  -1.9437  -1.8482  -1.5438  -1.4555  -0.8839
    -0.6079   1.6681   2.0131   3.3825   4.8260   5.9627   6.5052   6.8901
     7.7510   8.0872   8.3251   8.7120   8.9755   9.4153   9.6449  10.5186
    10.6682  10.9506  11.1523  11.4799  11.9684  12.2216  12.4041  13.2888
    13.5194  13.7116  14.1367  14.4063  14.7927  15.0938  15.4211  15.4894

          k =-0.0864-0.1497 0.0000 (  5038 PWs)   bands (ev):

   -90.5179 -90.2540 -90.1953 -90.1466 -54.0241 -54.0113 -53.9823 -53.7784
   -53.7441 -53.7260 -53.6846 -53.6668 -53.6563 -53.6313 -53.5952 -53.5742
   -13.9957  -6.6985  -4.8174  -4.0826  -3.8092  -3.7326  -3.5784  -3.5241
    -3.5133  -3.3231  -2.9958  -2.9581  -2.7993  -2.7400  -2.5863  -2.5302
    -2.3370  -2.1456  -1.8568  -1.7180  -1.4855  -1.2962  -0.7858  -0.3781
     1.6699   1.9732   3.3345   4.3585   5.5296   7.6534   8.0161   8.1454
     8.2976   8.4687   8.8533   9.1420   9.5437   9.5993   9.8650   9.9065
    10.5032  10.7998  10.9878  11.3830  11.7403  11.9298  12.3207  12.3627
    12.8955  13.5724  13.6352  13.7106  14.2546  14.5609  14.7798  14.8255

     the Fermi energy is     1.9080 ev

!    total energy              =   -1205.81347957 Ry
     Harris-Foulkes estimate   =   -1205.81347807 Ry
     estimated scf accuracy    <       0.00000037 Ry

     The total energy is the sum of the following terms:

     one-electron contribution =   -6032.13084411 Ry
     hartree contribution      =    3014.02117232 Ry
     xc contribution           =    -123.21531767 Ry
     ewald contribution        =    1935.51919481 Ry
     electric field correction =       0.00017053 Ry
     smearing contrib. (-TS)   =      -0.00785545 Ry

     convergence has been achieved in   9 iterations

     Forces acting on atoms (Ry/au):


     negative rho (up, down):  2.343E-03 0.000E+00
     atom    1 type  1   force =    -0.00218730    0.00208859   -0.00887129
     atom    2 type  1   force =     0.00285150   -0.00160082   -0.01337581
     atom    3 type  1   force =     0.00576917   -0.00852728    0.02608509
     atom    4 type  1   force =    -0.02448659    0.01890040   -0.06653542
     atom    5 type  2   force =    -0.02708899   -0.06032858    0.06748498
     atom    6 type  3   force =    -0.00574826    0.00734019   -0.01214281
     atom    7 type  3   force =     0.02712871    0.04632371    0.02332638
     atom    8 type  3   force =     0.02376176   -0.00419622   -0.01597111

     Total force =     0.140971     Total SCF correction =     0.002109
 !ASE
     Check: negative starting charge=   -0.002400
     NEW-OLD atomic charge density approx. for the potential
     Check: negative starting charge=   -0.002355

     negative rho (up, down):  2.308E-03 0.000E+00
 
     Adding external electric field

     Computed dipole along edir(3) : 
        Dipole                0.1594 Ry au,          0.4052 Debye
        Dipole field          0.0011 Ry au
 
        Potential amp.       -0.0755 Ry
        Total length         35.2972 bohr
 

     total cpu time spent up to now is       63.7 secs

     per-process dynamical memory:    31.3 Mb

     Self-consistent Calculation

     iteration #  1     ecut=    29.40 Ry     beta=0.10
     Davidson diagonalization with overlap
     ethr =  1.78E-09,  avg # of iterations =  8.8

     negative rho (up, down):  2.298E-03 0.000E+00
 
     Adding external electric field

     Computed dipole along edir(3) : 
        Dipole                0.0789 Ry au,          0.2006 Debye
        Dipole field          0.0005 Ry au
 
        Potential amp.       -0.0374 Ry
        Total length         35.2972 bohr
 

     total cpu time spent up to now is       67.8 secs

     total energy              =   -1205.83111914 Ry
     Harris-Foulkes estimate   =   -1205.83558489 Ry
     estimated scf accuracy    <       0.03244162 Ry

     iteration #  2     ecut=    29.40 Ry     beta=0.10
     Davidson diagonalization with overlap
     ethr =  3.86E-05,  avg # of iterations =  3.0

     negative rho (up, down):  2.293E-03 0.000E+00
 
     Adding external electric field

     Computed dipole along edir(3) : 
        Dipole                0.1110 Ry au,          0.2822 Debye
        Dipole field          0.0007 Ry au
 
        Potential amp.       -0.0526 Ry
        Total length         35.2972 bohr
 

     total cpu time spent up to now is       69.5 secs

     total energy              =   -1205.83164852 Ry
     Harris-Foulkes estimate   =   -1205.83326110 Ry
     estimated scf accuracy    <       0.02028214 Ry

     iteration #  3     ecut=    29.40 Ry     beta=0.10
     Davidson diagonalization with overlap
     ethr =  2.41E-05,  avg # of iterations =  2.2

     negative rho (up, down):  2.342E-03 0.000E+00
 
     Adding external electric field

     Computed dipole along edir(3) : 
        Dipole                0.0819 Ry au,          0.2081 Debye
        Dipole field          0.0005 Ry au
 
        Potential amp.       -0.0388 Ry
        Total length         35.2972 bohr
 

     total cpu time spent up to now is       71.0 secs

     total energy              =   -1205.82986313 Ry
     Harris-Foulkes estimate   =   -1205.83228019 Ry
     estimated scf accuracy    <       0.01027592 Ry

     iteration #  4     ecut=    29.40 Ry     beta=0.10
     Davidson diagonalization with overlap
     ethr =  1.22E-05,  avg # of iterations =  3.7

     negative rho (up, down):  2.504E-03 0.000E+00
 
     Adding external electric field

     Computed dipole along edir(3) : 
        Dipole                0.0848 Ry au,          0.2154 Debye
        Dipole field          0.0006 Ry au
 
        Potential amp.       -0.0401 Ry
        Total length         35.2972 bohr
 

     total cpu time spent up to now is       72.8 secs

     total energy              =   -1205.83012559 Ry
     Harris-Foulkes estimate   =   -1205.83054109 Ry
     estimated scf accuracy    <       0.00281718 Ry

     iteration #  5     ecut=    29.40 Ry     beta=0.10
     Davidson diagonalization with overlap
     ethr =  3.35E-06,  avg # of iterations =  2.5

     negative rho (up, down):  2.591E-03 0.000E+00
 
     Adding external electric field

     Computed dipole along edir(3) : 
        Dipole                0.0888 Ry au,          0.2258 Debye
        Dipole field          0.0006 Ry au
 
        Potential amp.       -0.0421 Ry
        Total length         35.2972 bohr
 

     total cpu time spent up to now is       74.3 secs

     total energy              =   -1205.83029884 Ry
     Harris-Foulkes estimate   =   -1205.83036146 Ry
     estimated scf accuracy    <       0.00076448 Ry

     iteration #  6     ecut=    29.40 Ry     beta=0.10
     Davidson diagonalization with overlap
     ethr =  9.10E-07,  avg # of iterations =  2.7

     negative rho (up, down):  2.630E-03 0.000E+00
 
     Adding external electric field

     Computed dipole along edir(3) : 
        Dipole                0.1083 Ry au,          0.2752 Debye
        Dipole field          0.0007 Ry au
 
        Potential amp.       -0.0513 Ry
        Total length         35.2972 bohr
 

     total cpu time spent up to now is       75.9 secs

     total energy              =   -1205.83031830 Ry
     Harris-Foulkes estimate   =   -1205.83038899 Ry
     estimated scf accuracy    <       0.00094566 Ry

     iteration #  7     ecut=    29.40 Ry     beta=0.10
     Davidson diagonalization with overlap
     ethr =  9.10E-07,  avg # of iterations =  4.3

     negative rho (up, down):  2.609E-03 0.000E+00
 
     Adding external electric field

     Computed dipole along edir(3) : 
        Dipole                0.1101 Ry au,          0.2799 Debye
        Dipole field          0.0007 Ry au
 
        Potential amp.       -0.0522 Ry
        Total length         35.2972 bohr
 

     total cpu time spent up to now is       77.8 secs

     total energy              =   -1205.83036585 Ry
     Harris-Foulkes estimate   =   -1205.83036706 Ry
     estimated scf accuracy    <       0.00005574 Ry

     iteration #  8     ecut=    29.40 Ry     beta=0.10
     Davidson diagonalization with overlap
     ethr =  6.64E-08,  avg # of iterations =  2.0

     negative rho (up, down):  2.561E-03 0.000E+00
 
     Adding external electric field

     Computed dipole along edir(3) : 
        Dipole                0.1104 Ry au,          0.2806 Debye
        Dipole field          0.0007 Ry au
 
        Potential amp.       -0.0523 Ry
        Total length         35.2972 bohr
 

     total cpu time spent up to now is       79.2 secs

     total energy              =   -1205.83037426 Ry
     Harris-Foulkes estimate   =   -1205.83037079 Ry
     estimated scf accuracy    <       0.00000847 Ry

     iteration #  9     ecut=    29.40 Ry     beta=0.10
     Davidson diagonalization with overlap
     ethr =  1.01E-08,  avg # of iterations =  1.0

     negative rho (up, down):  2.527E-03 0.000E+00
 
     Adding external electric field

     Computed dipole along edir(3) : 
        Dipole                0.1099 Ry au,          0.2794 Debye
        Dipole field          0.0007 Ry au
 
        Potential amp.       -0.0521 Ry
        Total length         35.2972 bohr
 

     total cpu time spent up to now is       80.6 secs

     total energy              =   -1205.83037651 Ry
     Harris-Foulkes estimate   =   -1205.83037515 Ry
     estimated scf accuracy    <       0.00000424 Ry

     iteration # 10     ecut=    29.40 Ry     beta=0.10
     Davidson diagonalization with overlap
     ethr =  5.05E-09,  avg # of iterations =  2.0

     negative rho (up, down):  2.332E-03 0.000E+00
 
     Adding external electric field

     Computed dipole along edir(3) : 
        Dipole                0.1067 Ry au,          0.2711 Debye
        Dipole field          0.0007 Ry au
 
        Potential amp.       -0.0505 Ry
        Total length         35.2972 bohr
 

     total cpu time spent up to now is       82.0 secs

     End of self-consistent calculation

          k = 0.0000 0.0000 0.0000 (  5071 PWs)   bands (ev):

   -90.6790 -90.4015 -90.3641 -90.3067 -54.1995 -54.1240 -54.0827 -53.9339
   -53.8483 -53.8168 -53.8094 -53.8011 -53.7940 -53.7703 -53.7266 -53.7200
   -14.7282  -6.0164  -5.5213  -4.7411  -4.6687  -4.5008  -4.3317  -3.6330
    -3.3207  -3.1742  -3.1441  -3.0515  -3.0475  -2.8885  -2.7741  -2.2284
    -2.1719  -1.9564  -1.8673  -1.7422  -1.6745  -1.6330  -1.3978  -1.2998
     0.0899   0.4747   1.4162   2.4913   3.2168   4.7597   5.3436   5.8211
     6.3417   6.7012   7.1777   7.9096   8.6933   9.2761   9.6884   9.9377
    10.6910  10.8750  11.2358  11.5757  11.7619  12.2528  12.6026  12.8529
    13.1587  13.5788  13.9377  14.5264  14.8105  15.2419  15.7928  16.3579

          k = 0.0000 0.0998 0.0000 (  5031 PWs)   bands (ev):

   -90.6761 -90.3980 -90.3619 -90.3040 -54.1927 -54.1308 -54.1104 -53.9160
   -53.8823 -53.8469 -53.8275 -53.8094 -53.7912 -53.7771 -53.7564 -53.7203
   -14.2834  -6.2100  -4.9859  -4.2257  -4.0898  -3.9397  -3.8257  -3.6102
    -3.5228  -3.2834  -3.1329  -2.9793  -2.9169  -2.7017  -2.6509  -2.5665
    -2.4634  -2.3521  -2.1709  -2.0778  -1.9364  -1.7172  -1.5783  -1.0282
    -0.5916   1.3043   1.8525   3.3451   4.7164   6.0978   6.4951   7.0080
     7.7041   8.0761   8.1997   8.6836   8.9393   9.4528   9.6987  10.4316
    10.6254  10.8078  11.0528  11.3395  11.8583  12.3058  12.4940  13.0896
    13.4101  13.6808  13.9738  14.2768  14.8141  15.0497  15.5099  15.5708

          k = 0.0000-0.1996 0.0000 (  5048 PWs)   bands (ev):

   -90.6732 -90.3949 -90.3592 -90.3012 -54.1896 -54.1713 -54.1097 -53.9372
   -53.9255 -53.8511 -53.8325 -53.8105 -53.8058 -53.7805 -53.7578 -53.7245
   -13.7382  -6.9719  -4.9460  -4.6023  -4.5336  -4.4313  -4.2580  -4.1119
    -3.8522  -3.4392  -2.9445  -2.9273  -2.7124  -2.2793  -2.0960  -1.8510
    -1.7807  -1.7502  -1.4884  -1.3547  -1.3042  -1.2769  -0.9117  -0.5991
     1.9058   2.2446   2.8544   3.1158   4.6983   5.6971   6.1438   6.3999
     8.0217   8.1702   8.6098   9.9940  10.1347  10.4294  10.6791  10.7667
    11.0104  11.1097  11.3430  11.4037  11.5531  12.0724  12.2574  12.4806
    12.5973  12.6922  13.1354  13.1652  13.4811  13.6449  14.0637  14.3986

          k =-0.0864 0.0499 0.0000 (  5024 PWs)   bands (ev):

   -90.6789 -90.4006 -90.3650 -90.3068 -54.1944 -54.1197 -54.0812 -53.8921
   -53.8549 -53.8417 -53.8142 -53.8072 -53.7997 -53.7753 -53.7264 -53.7182
   -14.7164  -5.8745  -5.2325  -4.3277  -4.1898  -4.0436  -3.9451  -3.5814
    -3.3954  -3.3741  -3.1501  -2.8306  -2.7720  -2.6699  -2.6002  -2.5323
    -2.4409  -2.3732  -2.2904  -2.1521  -2.0958  -1.9559  -1.7466  -1.5940
    -1.2097  -0.0078   1.2562   1.9898   3.7808   5.0995   5.9318   6.3638
     6.6849   6.9282   7.2227   7.9346   8.2208   8.6158   9.1328   9.9756
    10.5868  10.8895  11.2110  11.7949  12.1178  12.7536  13.6899  14.0397
    14.4379  14.4833  15.3179  15.4477  15.8512  16.2689  16.3256  16.8195

          k =-0.0864 0.1497 0.0000 (  5031 PWs)   bands (ev):

   -90.6761 -90.3980 -90.3619 -90.3040 -54.1927 -54.1335 -54.1076 -53.9123
   -53.8856 -53.8523 -53.8229 -53.8092 -53.7913 -53.7771 -53.7564 -53.7203
   -14.2837  -6.2093  -5.0116  -4.2337  -4.0298  -3.8922  -3.7987  -3.6967
    -3.4875  -3.2696  -3.1366  -3.0297  -2.8685  -2.7231  -2.6353  -2.5403
    -2.5066  -2.3469  -2.2078  -2.0950  -1.9987  -1.7065  -1.5979  -1.0259
    -0.5261   1.4305   1.7799   3.3713   4.6428   6.1213   6.4841   6.9463
     7.7181   8.0546   8.1966   8.6683   8.8617   9.4282   9.7223  10.4891
    10.6743  10.8295  11.0536  11.4508  11.8129  12.0762  12.7694  13.0664
    13.5675  13.7582  14.0746  14.4568  14.7857  14.8955  15.4596  15.5562

          k =-0.0864-0.1497 0.0000 (  5038 PWs)   bands (ev):

   -90.6732 -90.3950 -90.3592 -90.3013 -54.1868 -54.1688 -54.1070 -53.9233
   -53.8923 -53.8846 -53.8466 -53.8164 -53.8083 -53.7820 -53.7577 -53.7237
   -13.7451  -6.9738  -4.5894  -4.0896  -3.9524  -3.8792  -3.7307  -3.6840
    -3.6811  -3.3191  -3.1346  -3.0452  -2.9464  -2.8750  -2.7205  -2.6774
    -2.5149  -2.2704  -2.0309  -1.8851  -1.6506  -1.4440  -0.8324  -0.4233
     1.5580   1.7541   3.3069   4.1268   5.4468   7.6259   7.7581   8.0036
     8.0730   8.5618   8.8200   9.1143   9.4941   9.5800   9.8416   9.9980
    10.4204  10.7315  10.8993  11.2438  11.5378  11.7923  12.0854  12.4006
    12.8505  13.3432  13.6699  13.8107  14.1774  14.5435  14.7289  14.8775

     the Fermi energy is     1.6939 ev

!    total energy              =   -1205.83038891 Ry
     Harris-Foulkes estimate   =   -1205.83038183 Ry
     estimated scf accuracy    <       0.00000090 Ry

     The total energy is the sum of the following terms:

     one-electron contribution =   -5982.15868779 Ry
     hartree contribution      =    2988.68405258 Ry
     xc contribution           =    -123.18939277 Ry
     ewald contribution        =    1910.84243576 Ry
     electric field correction =       0.00007632 Ry
     smearing contrib. (-TS)   =      -0.00887301 Ry

     convergence has been achieved in  10 iterations

     Forces acting on atoms (Ry/au):


     negative rho (up, down):  2.332E-03 0.000E+00
     atom    1 type  1   force =    -0.00226372    0.00198540   -0.00927107
     atom    2 type  1   force =     0.00293792   -0.00178283   -0.01452830
     atom    3 type  1   force =     0.00509496   -0.00856566    0.02329352
     atom    4 type  1   force =    -0.00474154    0.01432622   -0.02091827
     atom    5 type  2   force =    -0.00606902    0.03113786   -0.01817213
     atom    6 type  3   force =    -0.00792629   -0.03098087   -0.01951137
     atom    7 type  3   force =    -0.00714200    0.00165923    0.04932810
     atom    8 type  3   force =     0.02010969   -0.00777936    0.00977952

     Total force =     0.086097     Total SCF correction =     0.006706
 !ASE
     Check: negative starting charge=   -0.002355
     NEW-OLD atomic charge density approx. for the potential
     Check: negative starting charge=   -0.002359

     negative rho (up, down):  2.351E-03 0.000E+00
 
     Adding external electric field

     Computed dipole along edir(3) : 
        Dipole                0.1067 Ry au,          0.2711 Debye
        Dipole field          0.0007 Ry au
 
        Potential amp.       -0.0505 Ry
        Total length         35.2972 bohr
 

     total cpu time spent up to now is       83.3 secs

     per-process dynamical memory:    31.3 Mb

     Self-consistent Calculation

     iteration #  1     ecut=    29.40 Ry     beta=0.10
     Davidson diagonalization with overlap
     ethr =  5.05E-09,  avg # of iterations =  5.3

     negative rho (up, down):  2.348E-03 0.000E+00
 
     Adding external electric field

     Computed dipole along edir(3) : 
        Dipole                0.0657 Ry au,          0.1670 Debye
        Dipole field          0.0004 Ry au
 
        Potential amp.       -0.0311 Ry
        Total length         35.2972 bohr
 

     total cpu time spent up to now is       86.5 secs

     total energy              =   -1205.83448253 Ry
     Harris-Foulkes estimate   =   -1205.83602830 Ry
     estimated scf accuracy    <       0.00999847 Ry

     iteration #  2     ecut=    29.40 Ry     beta=0.10
     Davidson diagonalization with overlap
     ethr =  1.19E-05,  avg # of iterations =  3.2

     negative rho (up, down):  2.347E-03 0.000E+00
 
     Adding external electric field

     Computed dipole along edir(3) : 
        Dipole                0.0891 Ry au,          0.2266 Debye
        Dipole field          0.0006 Ry au
 
        Potential amp.       -0.0422 Ry
        Total length         35.2972 bohr
 

     total cpu time spent up to now is       88.2 secs

     total energy              =   -1205.83481139 Ry
     Harris-Foulkes estimate   =   -1205.83531778 Ry
     estimated scf accuracy    <       0.00594559 Ry

     iteration #  3     ecut=    29.40 Ry     beta=0.10
     Davidson diagonalization with overlap
     ethr =  7.08E-06,  avg # of iterations =  3.0

     negative rho (up, down):  2.351E-03 0.000E+00
 
     Adding external electric field

     Computed dipole along edir(3) : 
        Dipole                0.0874 Ry au,          0.2222 Debye
        Dipole field          0.0006 Ry au
 
        Potential amp.       -0.0414 Ry
        Total length         35.2972 bohr
 

     total cpu time spent up to now is       89.8 secs

     total energy              =   -1205.83462304 Ry
     Harris-Foulkes estimate   =   -1205.83503602 Ry
     estimated scf accuracy    <       0.00227748 Ry

     iteration #  4     ecut=    29.40 Ry     beta=0.10
     Davidson diagonalization with overlap
     ethr =  2.71E-06,  avg # of iterations =  2.0

     negative rho (up, down):  2.384E-03 0.000E+00
 
     Adding external electric field

     Computed dipole along edir(3) : 
        Dipole                0.0932 Ry au,          0.2368 Debye
        Dipole field          0.0006 Ry au
 
        Potential amp.       -0.0441 Ry
        Total length         35.2972 bohr
 

     total cpu time spent up to now is       91.3 secs

     total energy              =   -1205.83456564 Ry
     Harris-Foulkes estimate   =   -1205.83471936 Ry
     estimated scf accuracy    <       0.00090259 Ry

     iteration #  5     ecut=    29.40 Ry     beta=0.10
     Davidson diagonalization with overlap
     ethr =  1.07E-06,  avg # of iterations =  2.5

     negative rho (up, down):  2.403E-03 0.000E+00
 
     Adding external electric field

     Computed dipole along edir(3) : 
        Dipole                0.0941 Ry au,          0.2391 Debye
        Dipole field          0.0006 Ry au
 
        Potential amp.       -0.0446 Ry
        Total length         35.2972 bohr
 

     total cpu time spent up to now is       92.8 secs

     total energy              =   -1205.83465227 Ry
     Harris-Foulkes estimate   =   -1205.83465009 Ry
     estimated scf accuracy    <       0.00017874 Ry

     iteration #  6     ecut=    29.40 Ry     beta=0.10
     Davidson diagonalization with overlap
     ethr =  2.13E-07,  avg # of iterations =  2.0

     negative rho (up, down):  2.401E-03 0.000E+00
 
     Adding external electric field

     Computed dipole along edir(3) : 
        Dipole                0.1001 Ry au,          0.2545 Debye
        Dipole field          0.0007 Ry au
 
        Potential amp.       -0.0474 Ry
        Total length         35.2972 bohr
 

     total cpu time spent up to now is       94.3 secs

     total energy              =   -1205.83465919 Ry
     Harris-Foulkes estimate   =   -1205.83467092 Ry
     estimated scf accuracy    <       0.00017734 Ry

     iteration #  7     ecut=    29.40 Ry     beta=0.10
     Davidson diagonalization with overlap
     ethr =  2.11E-07,  avg # of iterations =  2.3

     negative rho (up, down):  2.402E-03 0.000E+00
 
     Adding external electric field

     Computed dipole along edir(3) : 
        Dipole                0.1011 Ry au,          0.2568 Debye
        Dipole field          0.0007 Ry au
 
        Potential amp.       -0.0479 Ry
        Total length         35.2972 bohr
 

     total cpu time spent up to now is       95.8 secs

     total energy              =   -1205.83467661 Ry
     Harris-Foulkes estimate   =   -1205.83467355 Ry
     estimated scf accuracy    <       0.00002189 Ry

     iteration #  8     ecut=    29.40 Ry     beta=0.10
     Davidson diagonalization with overlap
     ethr =  2.61E-08,  avg # of iterations =  2.5

     negative rho (up, down):  2.392E-03 0.000E+00
 
     Adding external electric field

     Computed dipole along edir(3) : 
        Dipole                0.1008 Ry au,          0.2563 Debye
        Dipole field          0.0007 Ry au
 
        Potential amp.       -0.0478 Ry
        Total length         35.2972 bohr
 

     total cpu time spent up to now is       97.4 secs

     total energy              =   -1205.83467887 Ry
     Harris-Foulkes estimate   =   -1205.83467857 Ry
     estimated scf accuracy    <       0.00000629 Ry

     iteration #  9     ecut=    29.40 Ry     beta=0.10
     Davidson diagonalization with overlap
     ethr =  7.49E-09,  avg # of iterations =  1.0

     negative rho (up, down):  2.385E-03 0.000E+00
 
     Adding external electric field

     Computed dipole along edir(3) : 
        Dipole                0.1002 Ry au,          0.2547 Debye
        Dipole field          0.0007 Ry au
 
        Potential amp.       -0.0475 Ry
        Total length         35.2972 bohr
 

     total cpu time spent up to now is       98.7 secs

     total energy              =   -1205.83467924 Ry
     Harris-Foulkes estimate   =   -1205.83467978 Ry
     estimated scf accuracy    <       0.00000310 Ry

     iteration # 10     ecut=    29.40 Ry     beta=0.10
     Davidson diagonalization with overlap
     ethr =  3.69E-09,  avg # of iterations =  1.8

     negative rho (up, down):  2.347E-03 0.000E+00
 
     Adding external electric field

     Computed dipole along edir(3) : 
        Dipole                0.0986 Ry au,          0.2506 Debye
        Dipole field          0.0007 Ry au
 
        Potential amp.       -0.0467 Ry
        Total length         35.2972 bohr
 

     total cpu time spent up to now is      100.1 secs

     End of self-consistent calculation

          k = 0.0000 0.0000 0.0000 (  5071 PWs)   bands (ev):

   -90.7220 -90.4332 -90.4045 -90.3313 -54.2530 -54.1552 -54.1233 -53.9684
   -53.8821 -53.8517 -53.8435 -53.8404 -53.8255 -53.8009 -53.7532 -53.7463
   -14.8609  -5.9891  -5.4029  -4.7874  -4.6970  -4.5333  -4.3622  -3.6656
    -3.3325  -3.2089  -3.1772  -3.0856  -3.0833  -2.9291  -2.8031  -2.2599
    -2.2044  -1.9863  -1.8929  -1.7780  -1.7074  -1.6647  -1.4303  -1.3348
     0.1254   0.3836   1.4154   2.4752   3.2111   4.8077   5.3297   5.8644
     6.3413   6.6733   7.1091   7.9924   8.6738   9.1922   9.6177  10.0978
    10.7523  10.8439  11.2837  11.6015  11.7536  12.2656  12.6194  12.8729
    13.2001  13.5330  13.9363  14.5422  14.8203  15.2677  15.8573  16.3829

          k = 0.0000 0.0998 0.0000 (  5031 PWs)   bands (ev):

   -90.7191 -90.4295 -90.4025 -90.3286 -54.2464 -54.1674 -54.1456 -53.9504
   -53.9145 -53.8875 -53.8647 -53.8395 -53.8238 -53.8060 -53.7863 -53.7456
   -14.4282  -5.9615  -5.0685  -4.2599  -4.1122  -3.9738  -3.8575  -3.6451
    -3.5627  -3.3045  -3.1631  -3.0138  -2.9524  -2.7350  -2.6845  -2.6095
    -2.4987  -2.3848  -2.2042  -2.1086  -1.9699  -1.7497  -1.6102  -1.1111
    -0.6405   1.2611   1.7993   3.3435   4.7058   6.1938   6.4988   7.0552
     7.7741   8.0764   8.1704   8.6780   9.0095   9.5039   9.7539  10.5087
    10.6026  10.7941  11.0911  11.2756  11.8627  12.3370  12.4924  13.2868
    13.4440  13.6985  13.9980  14.3265  14.7740  15.0535  15.5133  15.5778

          k = 0.0000-0.1996 0.0000 (  5048 PWs)   bands (ev):

   -90.7162 -90.4264 -90.3999 -90.3258 -54.2434 -54.2096 -54.1430 -53.9709
   -53.9621 -53.8865 -53.8710 -53.8398 -53.8359 -53.8068 -53.7958 -53.7478
   -13.9028  -6.7039  -5.0314  -4.6359  -4.5657  -4.4608  -4.2937  -4.1473
    -3.8933  -3.4758  -2.9975  -2.9782  -2.7423  -2.3069  -2.1280  -1.8857
    -1.8118  -1.7783  -1.5247  -1.3875  -1.3429  -1.3076  -1.0624  -0.6060
     1.8618   2.1988   2.8155   3.0779   4.6639   5.7892   6.1103   6.3636
     8.1401   8.1846   9.0634  10.0048  10.1855  10.4007  10.6747  10.7712
    11.0062  11.1391  11.3836  11.4310  11.5806  12.1412  12.2793  12.4437
    12.6101  12.7045  13.1625  13.1781  13.5385  13.6463  14.1112  14.3792

          k =-0.0864 0.0499 0.0000 (  5024 PWs)   bands (ev):

   -90.7219 -90.4321 -90.4057 -90.3314 -54.2482 -54.1510 -54.1218 -53.9234
   -53.8948 -53.8741 -53.8483 -53.8435 -53.8322 -53.8066 -53.7531 -53.7446
   -14.8506  -5.6684  -5.2965  -4.3594  -4.2287  -4.0770  -3.9728  -3.6134
    -3.4304  -3.3920  -3.1807  -2.8539  -2.7963  -2.7043  -2.6383  -2.5647
    -2.4774  -2.4066  -2.3206  -2.1872  -2.1224  -1.9892  -1.7801  -1.6261
    -1.2493  -0.0253   1.2298   1.9110   3.7854   5.1325   6.0095   6.4104
     6.6916   6.9369   7.2980   7.9710   8.2039   8.5696   9.2333   9.8044
    10.6022  10.8764  11.2517  11.7525  12.0885  12.8667  13.6836  14.0504
    14.4570  14.5061  15.2832  15.7999  15.9163  16.2545  16.2825  16.7817

          k =-0.0864 0.1497 0.0000 (  5031 PWs)   bands (ev):

   -90.7191 -90.4295 -90.4025 -90.3286 -54.2465 -54.1690 -54.1438 -53.9463
   -53.9181 -53.8928 -53.8601 -53.8394 -53.8239 -53.8059 -53.7863 -53.7456
   -14.4283  -5.9624  -5.0974  -4.2607  -4.0625  -3.9260  -3.8287  -3.7245
    -3.5187  -3.3001  -3.1687  -3.0612  -2.9001  -2.7595  -2.6669  -2.5884
    -2.5395  -2.3802  -2.2384  -2.1273  -2.0295  -1.7406  -1.6303  -1.0816
    -0.6117   1.3873   1.7315   3.3667   4.6372   6.1993   6.4941   7.0038
     7.7630   8.0445   8.1781   8.6878   8.9656   9.4338   9.7735  10.5131
    10.7099  10.8575  11.0670  11.4040  11.8691  12.1721  12.6966  13.1706
    13.6065  13.7924  14.0871  14.4279  14.7767  14.9193  15.4881  15.5712

          k =-0.0864-0.1497 0.0000 (  5038 PWs)   bands (ev):

   -90.7162 -90.4264 -90.3999 -90.3258 -54.2407 -54.2073 -54.1403 -53.9557
   -53.9332 -53.9159 -53.8865 -53.8451 -53.8378 -53.8084 -53.7960 -53.7471
   -13.9088  -6.7080  -4.7017  -4.1164  -3.9877  -3.9103  -3.7667  -3.7198
    -3.7162  -3.3657  -3.1732  -3.0670  -2.9755  -2.9081  -2.7600  -2.7138
    -2.5572  -2.3049  -2.0620  -1.9152  -1.6899  -1.4732  -0.9885  -0.4290
     1.5359   1.7101   3.2976   4.0978   5.4329   7.7469   7.9325   8.0167
     8.1549   8.6196   8.8428   9.1165   9.4867   9.6361   9.8226  10.0502
    10.4628  10.7251  10.8933  11.2252  11.5704  11.8250  12.0129  12.4235
    12.9008  13.3095  13.6885  13.9202  14.1620  14.5830  14.6871  14.8907

     the Fermi energy is     1.6503 ev

!    total energy              =   -1205.83468220 Ry
     Harris-Foulkes estimate   =   -1205.83468159 Ry
     estimated scf accuracy    <       0.00000016 Ry

     The total energy is the sum of the following terms:

     one-electron contribution =   -5971.33552161 Ry
     hartree contribution      =    2983.21742870 Ry
     xc contribution           =    -123.22458300 Ry
     ewald contribution        =    1905.51725283 Ry
     electric field correction =       0.00006524 Ry
     smearing contrib. (-TS)   =      -0.00932437 Ry

     convergence has been achieved in  10 iterations

     Forces acting on atoms (Ry/au):


     negative rho (up, down):  2.347E-03 0.000E+00
     atom    1 type  1   force =    -0.00224771    0.00194716   -0.00929055
     atom    2 type  1   force =     0.00298130   -0.00180587   -0.01542712
     atom    3 type  1   force =     0.00508794   -0.00794262    0.02288696
     atom    4 type  1   force =    -0.00097260    0.00943070   -0.01344496
     atom    5 type  2   force =     0.00867452   -0.08184866   -0.10830309
     atom    6 type  3   force =    -0.03657481    0.04499726    0.08391069
     atom    7 type  3   force =     0.00492026    0.04092070    0.02256989
     atom    8 type  3   force =     0.01813109   -0.00569867    0.01709818

     Total force =     0.181653     Total SCF correction =     0.001263
 !ASE
     Check: negative starting charge=   -0.002359
     NEW-OLD atomic charge density approx. for the potential
     Check: negative starting charge=   -0.002358

     negative rho (up, down):  2.347E-03 0.000E+00
 
     Adding external electric field

     Computed dipole along edir(3) : 
        Dipole                0.0986 Ry au,          0.2506 Debye
        Dipole field          0.0007 Ry au
 
        Potential amp.       -0.0467 Ry
        Total length         35.2972 bohr
 

     total cpu time spent up to now is      101.3 secs

     per-process dynamical memory:    31.3 Mb

     Self-consistent Calculation

     iteration #  1     ecut=    29.40 Ry     beta=0.10
     Davidson diagonalization with overlap
     ethr =  3.69E-09,  avg # of iterations =  4.2

     negative rho (up, down):  2.346E-03 0.000E+00
 
     Adding external electric field

     Computed dipole along edir(3) : 
        Dipole                0.1171 Ry au,          0.2977 Debye
        Dipole field          0.0008 Ry au
 
        Potential amp.       -0.0555 Ry
        Total length         35.2972 bohr
 

     total cpu time spent up to now is      104.4 secs

     total energy              =   -1205.83608122 Ry
     Harris-Foulkes estimate   =   -1205.83630700 Ry
     estimated scf accuracy    <       0.00159992 Ry

     iteration #  2     ecut=    29.40 Ry     beta=0.10
     Davidson diagonalization with overlap
     ethr =  1.90E-06,  avg # of iterations =  3.3

     negative rho (up, down):  2.346E-03 0.000E+00
 
     Adding external electric field

     Computed dipole along edir(3) : 
        Dipole                0.1070 Ry au,          0.2720 Debye
        Dipole field          0.0007 Ry au
 
        Potential amp.       -0.0507 Ry
        Total length         35.2972 bohr
 

     total cpu time spent up to now is      106.1 secs

     total energy              =   -1205.83615897 Ry
     Harris-Foulkes estimate   =   -1205.83626855 Ry
     estimated scf accuracy    <       0.00103064 Ry

     iteration #  3     ecut=    29.40 Ry     beta=0.10
     Davidson diagonalization with overlap
     ethr =  1.23E-06,  avg # of iterations =  2.3

     negative rho (up, down):  2.344E-03 0.000E+00
 
     Adding external electric field

     Computed dipole along edir(3) : 
        Dipole                0.1070 Ry au,          0.2721 Debye
        Dipole field          0.0007 Ry au
 
        Potential amp.       -0.0507 Ry
        Total length         35.2972 bohr
 

     total cpu time spent up to now is      107.6 secs

     total energy              =   -1205.83614994 Ry
     Harris-Foulkes estimate   =   -1205.83619976 Ry
     estimated scf accuracy    <       0.00028242 Ry

     iteration #  4     ecut=    29.40 Ry     beta=0.10
     Davidson diagonalization with overlap
     ethr =  3.36E-07,  avg # of iterations =  2.0

     negative rho (up, down):  2.345E-03 0.000E+00
 
     Adding external electric field

     Computed dipole along edir(3) : 
        Dipole                0.1065 Ry au,          0.2706 Debye
        Dipole field          0.0007 Ry au
 
        Potential amp.       -0.0504 Ry
        Total length         35.2972 bohr
 

     total cpu time spent up to now is      109.1 secs

     total energy              =   -1205.83613667 Ry
     Harris-Foulkes estimate   =   -1205.83616135 Ry
     estimated scf accuracy    <       0.00011735 Ry

     iteration #  5     ecut=    29.40 Ry     beta=0.10
     Davidson diagonalization with overlap
     ethr =  1.40E-07,  avg # of iterations =  2.0

     negative rho (up, down):  2.347E-03 0.000E+00
 
     Adding external electric field

     Computed dipole along edir(3) : 
        Dipole                0.1033 Ry au,          0.2625 Debye
        Dipole field          0.0007 Ry au
 
        Potential amp.       -0.0489 Ry
        Total length         35.2972 bohr
 

     total cpu time spent up to now is      110.5 secs

     total energy              =   -1205.83614804 Ry
     Harris-Foulkes estimate   =   -1205.83615243 Ry
     estimated scf accuracy    <       0.00002054 Ry

     iteration #  6     ecut=    29.40 Ry     beta=0.10
     Davidson diagonalization with overlap
     ethr =  2.45E-08,  avg # of iterations =  2.0

     negative rho (up, down):  2.347E-03 0.000E+00
 
     Adding external electric field

[...]

     Computed dipole along edir(3) : 
        Dipole                0.0041 Ry au,          0.0105 Debye
        Dipole field          0.0000 Ry au
 
        Potential amp.       -0.0020 Ry
        Total length         35.2972 bohr
 

     total cpu time spent up to now is      686.7 secs

     total energy              =   -1205.86485237 Ry
     Harris-Foulkes estimate   =   -1205.86485229 Ry
     estimated scf accuracy    <       0.00000322 Ry

     iteration #  5     ecut=    29.40 Ry     beta=0.10
     Davidson diagonalization with overlap
     ethr =  3.84E-09,  avg # of iterations =  2.0

     negative rho (up, down):  2.422E-03 0.000E+00
 
     Adding external electric field

     Computed dipole along edir(3) : 
        Dipole                0.0032 Ry au,          0.0082 Debye
        Dipole field          0.0000 Ry au
 
        Potential amp.       -0.0015 Ry
        Total length         35.2972 bohr
 

     total cpu time spent up to now is      688.1 secs

     total energy              =   -1205.86485252 Ry
     Harris-Foulkes estimate   =   -1205.86485255 Ry
     estimated scf accuracy    <       0.00000109 Ry

     iteration #  6     ecut=    29.40 Ry     beta=0.10
     Davidson diagonalization with overlap
     ethr =  1.30E-09,  avg # of iterations =  2.0

     negative rho (up, down):  2.422E-03 0.000E+00
 
     Adding external electric field

     Computed dipole along edir(3) : 
        Dipole                0.0022 Ry au,          0.0055 Debye
        Dipole field          0.0000 Ry au
 
        Potential amp.       -0.0010 Ry
        Total length         35.2972 bohr
 

     total cpu time spent up to now is      689.6 secs

     End of self-consistent calculation

          k = 0.0000 0.0000 0.0000 (  5071 PWs)   bands (ev):

   -90.6861 -90.5628 -90.5340 -90.5172 -54.2067 -54.1327 -54.0882 -54.0771
   -54.0281 -54.0053 -53.9927 -53.9736 -53.9587 -53.9420 -53.9394 -53.9200
   -14.7787  -6.3722  -5.1801  -4.8076  -4.7025  -4.5570  -4.3731  -3.6850
    -3.4184  -3.3201  -3.3052  -3.1967  -3.1906  -2.9741  -2.9277  -2.3523
    -2.3285  -2.2267  -1.9858  -1.9401  -1.8609  -1.8108  -1.5499  -1.4458
     0.0212   0.3272   1.7393   2.0395   2.8157   4.9921   5.2898   5.5998
     6.1920   6.7107   7.1171   8.5607   8.7357   9.5845   9.9160  10.2081
    10.6567  10.8927  11.2934  11.6026  11.7805  12.4554  12.6167  12.8797
    13.1362  13.3283  13.9544  14.2688  15.1586  15.3665  15.5975  16.4035

          k = 0.0000 0.0998 0.0000 (  5031 PWs)   bands (ev):

   -90.6830 -90.5600 -90.5298 -90.5159 -54.1998 -54.1287 -54.1161 -54.0581
   -54.0462 -54.0337 -54.0078 -54.0004 -53.9840 -53.9672 -53.9405 -53.9168
   -14.3563  -5.7700  -5.2399  -4.3203  -4.1582  -4.0591  -3.9402  -3.7785
    -3.5939  -3.4676  -3.3211  -3.0935  -2.9880  -2.8307  -2.8110  -2.6949
    -2.6215  -2.5061  -2.3441  -2.2553  -2.1457  -1.8691  -1.7606  -1.1250
    -0.7704   1.1288   1.7037   3.2719   4.6899   6.3761   6.6381   7.0372
     7.7758   7.9829   8.0549   8.7791   9.0994   9.6935   9.8502  10.3084
    10.5234  10.9879  11.1629  11.3623  11.7224  12.1906  12.3737  12.9939
    13.4616  13.8090  14.1284  14.4304  14.7413  15.1122  15.5351  15.6748

          k = 0.0000-0.1996 0.0000 (  5048 PWs)   bands (ev):

   -90.6800 -90.5571 -90.5265 -90.5136 -54.2084 -54.1678 -54.1201 -54.0766
   -54.0666 -54.0574 -54.0297 -53.9914 -53.9827 -53.9737 -53.9454 -53.9150
   -13.8482  -6.2937  -5.6212  -4.6829  -4.6339  -4.4827  -4.3853  -4.2316
    -3.7813  -3.5117  -3.0853  -2.9392  -2.8474  -2.6574  -2.2866  -1.9870
    -1.9612  -1.9505  -1.5636  -1.5394  -1.4465  -1.4418  -1.2054  -0.6579
     1.5015   2.0927   2.6501   2.9146   5.0974   5.5229   6.0052   6.7025
     8.1865   8.7066   9.1148   9.7067   9.9868  10.4800  10.5758  10.8250
    11.2063  11.2297  11.3488  11.5169  11.7330  12.0742  12.2532  12.4511
    12.5616  12.7364  13.2303  13.3034  13.3580  13.5764  13.8749  14.4823

          k =-0.0864 0.0499 0.0000 (  5024 PWs)   bands (ev):

   -90.6858 -90.5631 -90.5319 -90.5193 -54.1918 -54.1193 -54.0836 -54.0515
   -54.0299 -54.0130 -54.0087 -53.9931 -53.9627 -53.9512 -53.9385 -53.9191
   -14.7686  -5.9192  -5.0059  -4.3692  -4.2172  -4.1706  -4.1460  -3.7432
    -3.6036  -3.3928  -3.3543  -2.9289  -2.8485  -2.8009  -2.7492  -2.6756
    -2.5694  -2.5534  -2.4759  -2.2827  -2.2428  -2.1154  -1.8827  -1.8141
    -1.1268  -0.4432   0.9324   1.9024   3.5157   5.3462   6.0328   6.7135
     6.7671   6.9464   7.4672   8.2357   8.3027   8.7429   9.4366  10.1889
    10.5502  10.8730  11.3842  11.6160  11.9787  12.4794  13.3646  13.9674
    14.3066  14.6387  14.7349  15.4968  15.8132  16.0873  16.8279  16.9512

          k =-0.0864 0.1497 0.0000 (  5031 PWs)   bands (ev):

   -90.6830 -90.5600 -90.5298 -90.5159 -54.1941 -54.1413 -54.1106 -54.0617
   -54.0441 -54.0269 -54.0115 -54.0029 -53.9839 -53.9652 -53.9404 -53.9168
   -14.3566  -5.7232  -5.1764  -4.3348  -4.1674  -4.0936  -3.9202  -3.8385
    -3.6737  -3.4685  -3.2780  -3.1528  -2.9598  -2.8499  -2.8009  -2.7164
    -2.6261  -2.5027  -2.3204  -2.2446  -2.2051  -1.8540  -1.7750  -1.1569
    -0.6593   1.1915   1.6902   3.3073   4.7036   6.3226   6.6465   6.9435
     7.8409   7.9372   8.0484   8.7279   9.1189   9.6196   9.9174  10.4127
    10.5674  10.9642  11.1776  11.5034  11.7703  12.2025  12.4665  13.1402
    13.5671  13.7713  14.0927  14.2517  14.5506  14.9871  15.5696  15.6462

          k =-0.0864-0.1497 0.0000 (  5038 PWs)   bands (ev):

   -90.6800 -90.5571 -90.5265 -90.5136 -54.2003 -54.1547 -54.1092 -54.0913
   -54.0433 -54.0423 -54.0402 -54.0161 -54.0046 -53.9751 -53.9446 -53.9145
   -13.8537  -6.2665  -5.2704  -4.1298  -4.0663  -3.9987  -3.9158  -3.8608
    -3.6920  -3.3535  -3.2646  -3.1990  -3.1363  -3.0169  -2.8391  -2.8121
    -2.6837  -2.2775  -2.2634  -2.0872  -1.8520  -1.6593  -1.0375  -0.4505
     1.4150   1.4971   3.3293   3.8946   6.1713   7.3735   7.8516   7.9485
     8.1896   8.4042   8.9537   9.1337   9.4750   9.6328   9.8902  10.1046
    10.4378  10.6942  10.9596  11.2153  11.4279  11.6403  11.8779  12.4680
    13.0345  13.1080  13.4133  13.8320  14.2897  14.4470  14.6904  14.7977

     the Fermi energy is     1.5582 ev

!    total energy              =   -1205.86485260 Ry
     Harris-Foulkes estimate   =   -1205.86485262 Ry
     estimated scf accuracy    <       0.00000010 Ry

     The total energy is the sum of the following terms:

     one-electron contribution =   -5976.63115982 Ry
     hartree contribution      =    2985.72945490 Ry
     xc contribution           =    -123.23720585 Ry
     ewald contribution        =    1908.28288784 Ry
     electric field correction =       0.00000003 Ry
     smearing contrib. (-TS)   =      -0.00882968 Ry

     convergence has been achieved in   6 iterations

     Forces acting on atoms (Ry/au):


     negative rho (up, down):  2.422E-03 0.000E+00
     atom    1 type  1   force =    -0.00160109    0.00099433   -0.00181683
     atom    2 type  1   force =     0.00108488   -0.00018290   -0.01997145
     atom    3 type  1   force =    -0.01716133    0.00428075    0.00867037
     atom    4 type  1   force =     0.01738233   -0.00543115    0.01319783
     atom    5 type  2   force =    -0.00794906    0.00250934   -0.00863495
     atom    6 type  3   force =    -0.00037776    0.00035922    0.00036201
     atom    7 type  3   force =    -0.00006711    0.00100187   -0.00028886
     atom    8 type  3   force =     0.00868914   -0.00353146    0.00848189

     Total force =     0.040078     Total SCF correction =     0.001760
 !ASE
     Check: negative starting charge=   -0.002384
     NEW-OLD atomic charge density approx. for the potential
     Check: negative starting charge=   -0.002385

     negative rho (up, down):  2.423E-03 0.000E+00
 
     Adding external electric field

     Computed dipole along edir(3) : 
        Dipole                0.0022 Ry au,          0.0055 Debye
        Dipole field          0.0000 Ry au
 
        Potential amp.       -0.0010 Ry
        Total length         35.2972 bohr
 

     total cpu time spent up to now is      690.8 secs

     per-process dynamical memory:    31.3 Mb

     Self-consistent Calculation

     iteration #  1     ecut=    29.40 Ry     beta=0.10
     Davidson diagonalization with overlap
     ethr =  1.30E-09,  avg # of iterations =  4.0

     negative rho (up, down):  2.423E-03 0.000E+00
 
     Adding external electric field

     Computed dipole along edir(3) : 
        Dipole                0.0032 Ry au,          0.0083 Debye
        Dipole field          0.0000 Ry au
 
        Potential amp.       -0.0015 Ry
        Total length         35.2972 bohr
 

     total cpu time spent up to now is      693.3 secs

     total energy              =   -1205.86485657 Ry
     Harris-Foulkes estimate   =   -1205.86485743 Ry
     estimated scf accuracy    <       0.00000791 Ry

     iteration #  2     ecut=    29.40 Ry     beta=0.10
     Davidson diagonalization with overlap
     ethr =  9.42E-09,  avg # of iterations =  1.0

     negative rho (up, down):  2.423E-03 0.000E+00
 
     Adding external electric field

     Computed dipole along edir(3) : 
        Dipole                0.0024 Ry au,          0.0062 Debye
        Dipole field          0.0000 Ry au
 
        Potential amp.       -0.0012 Ry
        Total length         35.2972 bohr
 

     total cpu time spent up to now is      694.6 secs

     total energy              =   -1205.86485672 Ry
     Harris-Foulkes estimate   =   -1205.86485742 Ry
     estimated scf accuracy    <       0.00001032 Ry

     iteration #  3     ecut=    29.40 Ry     beta=0.10
     Davidson diagonalization with overlap
     ethr =  9.42E-09,  avg # of iterations =  1.0

     negative rho (up, down):  2.423E-03 0.000E+00
 
     Adding external electric field

     Computed dipole along edir(3) : 
        Dipole                0.0020 Ry au,          0.0051 Debye
        Dipole field          0.0000 Ry au
 
        Potential amp.       -0.0010 Ry
        Total length         35.2972 bohr
 

     total cpu time spent up to now is      695.9 secs

     total energy              =   -1205.86485664 Ry
     Harris-Foulkes estimate   =   -1205.86485706 Ry
     estimated scf accuracy    <       0.00000280 Ry

     iteration #  4     ecut=    29.40 Ry     beta=0.10
     Davidson diagonalization with overlap
     ethr =  3.34E-09,  avg # of iterations =  2.0

     negative rho (up, down):  2.423E-03 0.000E+00
 
     Adding external electric field

     Computed dipole along edir(3) : 
        Dipole                0.0019 Ry au,          0.0049 Debye
        Dipole field          0.0000 Ry au
 
        Potential amp.       -0.0009 Ry
        Total length         35.2972 bohr
 

     total cpu time spent up to now is      697.4 secs

     End of self-consistent calculation

          k = 0.0000 0.0000 0.0000 (  5071 PWs)   bands (ev):

   -90.6886 -90.5691 -90.5365 -90.5197 -54.2095 -54.1354 -54.0912 -54.0799
   -54.0340 -54.0109 -53.9978 -53.9763 -53.9613 -53.9447 -53.9427 -53.9226
   -14.7815  -6.3804  -5.1817  -4.8093  -4.7065  -4.5603  -4.3754  -3.6864
    -3.4208  -3.3243  -3.3097  -3.1992  -3.1935  -2.9764  -2.9312  -2.3552
    -2.3323  -2.2280  -1.9887  -1.9428  -1.8642  -1.8145  -1.5543  -1.4487
     0.0164   0.3243   1.7364   2.0361   2.8106   4.9953   5.2889   5.5979
     6.1919   6.7088   7.1157   8.5587   8.7361   9.5827   9.9115  10.2096
    10.6559  10.8927  11.2943  11.6056  11.7780  12.4571  12.6171  12.8800
    13.1364  13.3249  13.9561  14.2655  15.1573  15.3632  15.6007  16.3982

          k = 0.0000 0.0998 0.0000 (  5031 PWs)   bands (ev):

   -90.6855 -90.5663 -90.5323 -90.5184 -54.2023 -54.1315 -54.1192 -54.0613
   -54.0517 -54.0396 -54.0112 -54.0033 -53.9882 -53.9698 -53.9436 -53.9194
   -14.3592  -5.7755  -5.2402  -4.3234  -4.1616  -4.0630  -3.9429  -3.7820
    -3.5977  -3.4713  -3.3244  -3.0965  -2.9921  -2.8337  -2.8141  -2.6979
    -2.6243  -2.5101  -2.3465  -2.2585  -2.1492  -1.8723  -1.7637  -1.1295
    -0.7753   1.1255   1.6999   3.2713   4.6856   6.3776   6.6386   7.0343
     7.7745   7.9806   8.0538   8.7765   9.1017   9.6941   9.8528  10.3062
    10.5227  10.9902  11.1633  11.3619  11.7190  12.1899  12.3729  12.9951
    13.4622  13.8080  14.1275  14.4286  14.7388  15.1114  15.5359  15.6760

          k = 0.0000-0.1996 0.0000 (  5048 PWs)   bands (ev):

   -90.6826 -90.5634 -90.5290 -90.5162 -54.2108 -54.1713 -54.1232 -54.0808
   -54.0694 -54.0608 -54.0358 -53.9939 -53.9874 -53.9775 -53.9480 -53.9176
   -13.8512  -6.2931  -5.6277  -4.6871  -4.6367  -4.4862  -4.3881  -4.2351
    -3.7841  -3.5150  -3.0884  -2.9421  -2.8515  -2.6597  -2.2897  -1.9902
    -1.9641  -1.9541  -1.5672  -1.5446  -1.4495  -1.4445  -1.2137  -0.6619
     1.4975   2.0889   2.6472   2.9108   5.1011   5.5161   6.0025   6.6961
     8.1874   8.7106   9.1145   9.7004   9.9829  10.4859  10.5768  10.8244
    11.2108  11.2317  11.3489  11.5189  11.7354  12.0761  12.2530  12.4521
    12.5641  12.7362  13.2286  13.3028  13.3539  13.5770  13.8734  14.4851

          k =-0.0864 0.0499 0.0000 (  5024 PWs)   bands (ev):

   -90.6884 -90.5693 -90.5345 -90.5218 -54.1942 -54.1219 -54.0866 -54.0577
   -54.0334 -54.0171 -54.0128 -53.9980 -53.9653 -53.9538 -53.9418 -53.9218
   -14.7715  -5.9256  -5.0072  -4.3728  -4.2211  -4.1741  -4.1484  -3.7464
    -3.6079  -3.3952  -3.3573  -2.9319  -2.8513  -2.8036  -2.7530  -2.6791
    -2.5721  -2.5578  -2.4798  -2.2858  -2.2459  -2.1182  -1.8854  -1.8182
    -1.1277  -0.4434   0.9252   1.8978   3.5165   5.3417   6.0328   6.7132
     6.7714   6.9469   7.4693   8.2373   8.3034   8.7448   9.4350  10.1868
    10.5487  10.8722  11.3825  11.6112  11.9743  12.4739  13.3633  13.9645
    14.3063  14.6388  14.7322  15.4966  15.8049  16.0835  16.8281  16.9557

          k =-0.0864 0.1497 0.0000 (  5031 PWs)   bands (ev):

   -90.6855 -90.5663 -90.5323 -90.5184 -54.1965 -54.1445 -54.1134 -54.0661
   -54.0484 -54.0325 -54.0150 -54.0058 -53.9881 -53.9679 -53.9435 -53.9195
   -14.3595  -5.7291  -5.1779  -4.3376  -4.1704  -4.0969  -3.9229  -3.8412
    -3.6769  -3.4714  -3.2813  -3.1560  -2.9635  -2.8528  -2.8045  -2.7194
    -2.6290  -2.5065  -2.3232  -2.2480  -2.2081  -1.8575  -1.7782  -1.1626
    -0.6641   1.1874   1.6866   3.3057   4.6992   6.3251   6.6468   6.9433
     7.8385   7.9353   8.0480   8.7247   9.1219   9.6213   9.9182  10.4113
    10.5651  10.9673  11.1748  11.5019  11.7677  12.2035  12.4650  13.1376
    13.5662  13.7699  14.0922  14.2524  14.5496  14.9856  15.5690  15.6485

          k =-0.0864-0.1497 0.0000 (  5038 PWs)   bands (ev):

   -90.6826 -90.5634 -90.5290 -90.5162 -54.2025 -54.1578 -54.1119 -54.0972
   -54.0483 -54.0453 -54.0440 -54.0186 -54.0076 -53.9807 -53.9472 -53.9171
   -13.8567  -6.2651  -5.2768  -4.1330  -4.0701  -4.0017  -3.9196  -3.8644
    -3.6973  -3.3573  -3.2678  -3.2030  -3.1391  -3.0202  -2.8420  -2.8152
    -2.6863  -2.2816  -2.2662  -2.0903  -1.8554  -1.6621  -1.0471  -0.4522
     1.4124   1.4935   3.3285   3.8900   6.1718   7.3712   7.8475   7.9435
     8.1865   8.3998   8.9552   9.1329   9.4758   9.6326   9.8922  10.1042
    10.4369  10.6963  10.9584  11.2138  11.4265  11.6390  11.8804  12.4659
    13.0372  13.1076  13.4137  13.8298  14.2902  14.4488  14.6884  14.7948

     the Fermi energy is     1.5547 ev

!    total energy              =   -1205.86485673 Ry
     Harris-Foulkes estimate   =   -1205.86485678 Ry
     estimated scf accuracy    <       0.00000064 Ry

     The total energy is the sum of the following terms:

     one-electron contribution =   -5976.60652327 Ry
     hartree contribution      =    2985.71720752 Ry
     xc contribution           =    -123.23753344 Ry
     ewald contribution        =    1908.27082443 Ry
     electric field correction =       0.00000003 Ry
     smearing contrib. (-TS)   =      -0.00883199 Ry

     convergence has been achieved in   4 iterations

     Forces acting on atoms (Ry/au):


     negative rho (up, down):  2.423E-03 0.000E+00
     atom    1 type  1   force =    -0.00156686    0.00096238   -0.00179389
     atom    2 type  1   force =     0.00103572   -0.00018225   -0.01997278
     atom    3 type  1   force =    -0.01696481    0.00437953    0.00860626
     atom    4 type  1   force =     0.01739735   -0.00540139    0.01297911
     atom    5 type  2   force =    -0.00826151    0.00326445   -0.00857493
     atom    6 type  3   force =    -0.00004167    0.00016853    0.00013868
     atom    7 type  3   force =    -0.00004467    0.00033937   -0.00002226
     atom    8 type  3   force =     0.00844643   -0.00353063    0.00863981

     Total force =     0.039988     Total SCF correction =     0.001913
 !ASE
 
     init_run     :      0.90s CPU      0.91s WALL (       1 calls)
     electrons    :    634.63s CPU    639.85s WALL (      49 calls)
     update_pot   :     21.05s CPU     21.33s WALL (      48 calls)
     forces       :     29.19s CPU     29.29s WALL (      49 calls)

     Called by init_run:
     wfcinit      :      0.33s CPU      0.33s WALL (       1 calls)
     potinit      :      0.14s CPU      0.14s WALL (       1 calls)

     Called by electrons:
     c_bands      :    485.58s CPU    489.41s WALL (     377 calls)
     sum_band     :     94.65s CPU     95.46s WALL (     377 calls)
     v_of_rho     :     10.25s CPU     10.40s WALL (     426 calls)
     newd         :     46.11s CPU     46.25s WALL (     426 calls)
     mix_rho      :      2.41s CPU      2.43s WALL (     377 calls)

     Called by c_bands:
     init_us_2    :      2.64s CPU      2.67s WALL (    4824 calls)
     cegterg      :    470.46s CPU    474.08s WALL (    2262 calls)

     Called by *egterg:
     h_psi        :    212.62s CPU    215.20s WALL (    7603 calls)
     s_psi        :     13.94s CPU     13.96s WALL (    7603 calls)
     g_psi        :      2.15s CPU      2.09s WALL (    5335 calls)
     cdiaghg      :    131.54s CPU    131.97s WALL (    7309 calls)

     Called by h_psi:
     add_vuspsi   :     14.36s CPU     14.41s WALL (    7603 calls)

     General routines
     calbec       :     26.98s CPU     27.09s WALL (   10159 calls)
     fft          :     10.50s CPU     10.65s WALL (    7207 calls)
     ffts         :      0.26s CPU      0.27s WALL (     803 calls)
     fftw         :    180.80s CPU    182.28s WALL (  909496 calls)
     interpolate  :      1.32s CPU      1.36s WALL (     803 calls)
 
     Parallel routines
     fft_scatter  :     87.04s CPU     87.65s WALL (  917506 calls)
 
     PWSCF        : 11m31.26s CPU    11m38.20s WALL

 
   This run was terminated on:   6:46:12  18Feb2017            

=------------------------------------------------------------------------------=
   JOB DONE.
=------------------------------------------------------------------------------=
Job  /afs/slac/g/suncat/bin/suncat-tsmpirun -x LD_LIBRARY_PATH -wdir /scratch/qe259882_2qN4k pw.x -in pw.inp

TID   HOST_NAME   COMMAND_LINE            STATUS            TERMINATION_TIME
===== ========== ================  =======================  ===================
00000 suncat1015 pw.x -in pw.inp   Done                     02/18/2017 06:46:12
00001 suncat1015 pw.x -in pw.inp   Done                     02/18/2017 06:46:12
00002 suncat1015 pw.x -in pw.inp   Done                     02/18/2017 06:46:12
00003 suncat1015 pw.x -in pw.inp   Done                     02/18/2017 06:46:12
00004 suncat1015 pw.x -in pw.inp   Done                     02/18/2017 06:46:12
00005 suncat1015 pw.x -in pw.inp   Done                     02/18/2017 06:46:12
00006 suncat1015 pw.x -in pw.inp   Done                     02/18/2017 06:46:12
00007 suncat1015 pw.x -in pw.inp   Done                     02/18/2017 06:46:12
00008 suncat1015 pw.x -in pw.inp   Done                     02/18/2017 06:46:12
00009 suncat1015 pw.x -in pw.inp   Done                     02/18/2017 06:46:12
00010 suncat1015 pw.x -in pw.inp   Done                     02/18/2017 06:46:12
00011 suncat1015 pw.x -in pw.inp   Done                     02/18/2017 06:46:12
