  python dir          : /nfs/slac/g/suncatfs/aidank/software/ase-espresso/lib/python2.7/site-packages/espresso
  espresso dir        : /nfs/slac/g/suncatfs/aidank/software/espresso-qeforge/bin
  pseudo dir          : /nfs/slac/g/suncatfs/aidank/scripts/gbrv/
  ase-espresso py git : c91b4c2-git



     Program PWSCF v.5.0.2 (svn rev. 10453) starts on 18Feb2017 at  6:57: 0 

     This program is part of the open-source Quantum ESPRESSO suite
     for quantum simulation of materials; please cite
         "P. Giannozzi et al., J. Phys.:Condens. Matter 21 395502 (2009);
          URL http://www.quantum-espresso.org", 
     in publications or presentations arising from this work. More details at
     http://www.quantum-espresso.org/quote

     Parallel version (MPI), running on    12 processors
     R & G space division:  proc/nbgrp/npool/nimage =      12
     Reading input from pw.inp
     Message from routine read_cards :
     DEPRECATED: no units specified in CELL_PARAMETERS card

     Current dimensions of program PWSCF are:
     Max number of different atomic species (ntypx) = 10
     Max number of k-points (npk) =  40000
     Max angular momentum in pseudopotentials (lmaxx) =  3
     Presently no symmetry can be used with electric field


     IMPORTANT: XC functional enforced from input :
     Exchange-correlation      = PBE ( 1  4  3  4 0)
     Any further DFT definition will be discarded
     Please, verify this is what you really want


     Subspace diagonalization in iterative solution of the eigenvalue problem:
     a serial algorithm will be used

 
     Parallelization info
     --------------------
     sticks:   dense  smooth     PW     G-vecs:    dense   smooth      PW
     Min          81      39     12                 9513     3338     586
     Max          82      40     16                 9522     3378     597
     Sum         981     479    161               114205    40347    7083
 


     bravais-lattice index     =            0
     lattice parameter (alat)  =       1.8897  a.u.
     unit-cell volume          =    1872.8848 (a.u.)^3
     number of atoms/cell      =            8
     number of atomic types    =            3
     number of electrons       =        84.00
     number of Kohn-Sham states=           72
     kinetic-energy cutoff     =      29.3995  Ry
     charge density cutoff     =     235.1957  Ry
     convergence threshold     =      1.0E-06
     mixing beta               =       0.1000
     number of iterations used =           15  plain     mixing
     Exchange-correlation      = PBE ( 1  4  3  4 0)
     nstep                     =           50


     celldm(1)=   1.889726  celldm(2)=   0.000000  celldm(3)=   0.000000
     celldm(4)=   0.000000  celldm(5)=   0.000000  celldm(6)=   0.000000

     crystal axes: (cart. coord. in units of alat)
               a(1) = (   5.784133   0.000000   0.000000 )  
               a(2) = (   1.446033   2.504603   0.000000 )  
               a(3) = (   0.000000   0.000000  19.157428 )  

     reciprocal axes: (cart. coord. in units 2 pi/alat)
               b(1) = (  0.172887 -0.099816  0.000000 )  
               b(2) = (  0.000000  0.399265  0.000000 )  
               b(3) = (  0.000000  0.000000  0.052199 )  


     PseudoPot. # 1 for Ag read from file:
     /nfs/slac/g/suncatfs/aidank/scripts/gbrv/Ag.UPF
     MD5 check sum: d66d668201baa78d5eb5b04ef7011058
     Pseudo is Ultrasoft + core correction, Zval = 19.0
     Generated by new atomic code, or converted to UPF format
     Using radial grid of  887 points,  6 beta functions with: 
                l(1) =   0
                l(2) =   0
                l(3) =   1
                l(4) =   1
                l(5) =   2
                l(6) =   2
     Q(r) pseudized with  6 coefficients,  rinner =    1.300   1.300   1.300
                                                       1.300   1.300

     PseudoPot. # 2 for N  read from file:
     /nfs/slac/g/suncatfs/aidank/scripts/gbrv/N.UPF
     MD5 check sum: 95339753478d7afb44899504a8723017
     Pseudo is Ultrasoft + core correction, Zval =  5.0
     Generated by new atomic code, or converted to UPF format
     Using radial grid of  729 points,  4 beta functions with: 
                l(1) =   0
                l(2) =   0
                l(3) =   1
                l(4) =   1
     Q(r) pseudized with  8 coefficients,  rinner =    0.900   0.900   0.900


     PseudoPot. # 3 for H  read from file:
     /nfs/slac/g/suncatfs/aidank/scripts/gbrv/H.UPF
     MD5 check sum: 761ae9a214b05c3daf00ab9f6b793d6f
     Pseudo is Ultrasoft, Zval =  1.0
     Generated by new atomic code, or converted to UPF format
     Using radial grid of  615 points,  2 beta functions with: 
                l(1) =   0
                l(2) =   0
     Q(r) pseudized with  8 coefficients,  rinner =    0.700

     atomic species   valence    mass     pseudopotential
        Ag1           19.00   107.86800     Ag( 1.00)
        N1             5.00    14.00670     N ( 1.00)
        H1             1.00     1.00794     H ( 1.00)

     No symmetry found



   Cartesian axes

     site n.     atom                  positions (alat units)
         1           Ag1 tau(   1) = (   5.4594866   0.7084522   7.1205000  )
         2           Ag1 tau(   2) = (   2.5674199   0.7084522   7.1205000  )
         3           Ag1 tau(   3) = (   1.1213865   1.5433200   9.4818626  )
         4           Ag1 tau(   4) = (   4.0134533   1.5433200   9.4818626  )
         5           N1  tau(   5) = (   4.5621367   1.6363527  11.4494182  )
         6           H1  tau(   6) = (   4.3976516   1.9395654  12.3876079  )
         7           H1  tau(   7) = (   4.2790168   0.6691408  11.4798680  )
         8           H1  tau(   8) = (   2.9664559   2.1965059  11.0125110  )

     number of k points=     6  Fermi-Dirac smearing, width (Ry)=  0.0073
                       cart. coord. in units 2pi/alat
        k(    1) = (   0.0000000   0.0000000   0.0000000), wk =   0.2500000
        k(    2) = (   0.0000000   0.0998162   0.0000000), wk =   0.5000000
        k(    3) = (   0.0000000  -0.1996324   0.0000000), wk =   0.2500000
        k(    4) = (  -0.0864434   0.0499081   0.0000000), wk =   0.2500000
        k(    5) = (  -0.0864434   0.1497243   0.0000000), wk =   0.5000000
        k(    6) = (  -0.0864434  -0.1497243   0.0000000), wk =   0.2500000

     Dense  grid:   114205 G-vectors     FFT dimensions: (  54,  27, 180)

     Smooth grid:    40347 G-vectors     FFT dimensions: (  40,  20, 125)

     Largest allocated arrays     est. size (Mb)     dimensions
        Kohn-Sham Wavefunctions         0.49 Mb     (     450,   72)
        NL pseudopotentials             0.59 Mb     (     450,   86)
        Each V/rho on FFT grid          0.33 Mb     (   21870)
        Each G-vector array             0.07 Mb     (    9513)
        G-vector shells                 0.03 Mb     (    3999)
     Largest temporary arrays     est. size (Mb)     dimensions
        Auxiliary wavefunctions         1.98 Mb     (     450,  288)
        Each subspace H/S matrix        1.27 Mb     (     288,  288)
        Each <psi_i|beta_j> matrix      0.09 Mb     (      86,   72)
        Arrays for rho mixing           5.01 Mb     (   21870,   15)

     Initial potential from superposition of free atoms
     Check: negative starting charge=   -0.002416

     starting charge   81.99978, renormalised to   84.00000

     negative rho (up, down):  2.474E-03 0.000E+00
 
     Adding external electric field

     Computed dipole along edir(3) : 
        Dipole               -1.1853 Ry au,         -3.0126 Debye
        Dipole field         -0.0080 Ry au
 
        Potential amp.        0.5614 Ry
        Total length         35.2972 bohr
 
     Starting wfc are   59 randomized atomic wfcs +   13 random wfc

     total cpu time spent up to now is        1.1 secs

     per-process dynamical memory:    18.4 Mb

     Self-consistent Calculation

     iteration #  1     ecut=    29.40 Ry     beta=0.10
     Davidson diagonalization with overlap
     ethr =  1.00E-02,  avg # of iterations =  7.2

     negative rho (up, down):  1.096E-03 0.000E+00
 
     Adding external electric field

     Computed dipole along edir(3) : 
        Dipole                1.3583 Ry au,          3.4524 Debye
        Dipole field          0.0091 Ry au
 
        Potential amp.       -0.6434 Ry
        Total length         35.2972 bohr
 

     total cpu time spent up to now is        5.0 secs

     total energy              =   -1203.79130517 Ry
     Harris-Foulkes estimate   =   -1207.56801151 Ry
     estimated scf accuracy    <      21.54811604 Ry

     iteration #  2     ecut=    29.40 Ry     beta=0.10
     Davidson diagonalization with overlap
     ethr =  1.00E-02,  avg # of iterations =  3.5

     negative rho (up, down):  7.861E-04 0.000E+00
 
     Adding external electric field

     Computed dipole along edir(3) : 
        Dipole                0.0093 Ry au,          0.0237 Debye
        Dipole field          0.0001 Ry au
 
        Potential amp.       -0.0044 Ry
        Total length         35.2972 bohr
 

     total cpu time spent up to now is        6.8 secs

     total energy              =   -1205.06654765 Ry
     Harris-Foulkes estimate   =   -1207.26149663 Ry
     estimated scf accuracy    <      23.93201606 Ry

     iteration #  3     ecut=    29.40 Ry     beta=0.10
     Davidson diagonalization with overlap
     ethr =  1.00E-02,  avg # of iterations =  2.5

     negative rho (up, down):  8.368E-04 0.000E+00
 
     Adding external electric field

     Computed dipole along edir(3) : 
        Dipole                0.0276 Ry au,          0.0702 Debye
        Dipole field          0.0002 Ry au
 
        Potential amp.       -0.0131 Ry
        Total length         35.2972 bohr
 

     total cpu time spent up to now is        8.4 secs

     total energy              =   -1205.91211903 Ry
     Harris-Foulkes estimate   =   -1206.12954326 Ry
     estimated scf accuracy    <       1.17668124 Ry

     iteration #  4     ecut=    29.40 Ry     beta=0.10
     Davidson diagonalization with overlap
     ethr =  1.40E-03,  avg # of iterations =  2.5

     negative rho (up, down):  9.555E-04 0.000E+00
 
     Adding external electric field

     Computed dipole along edir(3) : 
        Dipole                0.2386 Ry au,          0.6065 Debye
        Dipole field          0.0016 Ry au
 
        Potential amp.       -0.1130 Ry
        Total length         35.2972 bohr
 

     total cpu time spent up to now is        9.9 secs

     total energy              =   -1205.72065349 Ry
     Harris-Foulkes estimate   =   -1205.94280770 Ry
     estimated scf accuracy    <       0.51380495 Ry

     iteration #  5     ecut=    29.40 Ry     beta=0.10
     Davidson diagonalization with overlap
     ethr =  6.12E-04,  avg # of iterations =  3.7

     negative rho (up, down):  9.949E-04 0.000E+00
 
     Adding external electric field

     Computed dipole along edir(3) : 
        Dipole                0.2110 Ry au,          0.5363 Debye
        Dipole field          0.0014 Ry au
 
        Potential amp.       -0.0999 Ry
        Total length         35.2972 bohr
 

     total cpu time spent up to now is       11.8 secs

     total energy              =   -1205.80863728 Ry
     Harris-Foulkes estimate   =   -1205.81177831 Ry
     estimated scf accuracy    <       0.03627802 Ry

     iteration #  6     ecut=    29.40 Ry     beta=0.10
     Davidson diagonalization with overlap
     ethr =  4.32E-05,  avg # of iterations =  4.7

     negative rho (up, down):  1.402E-03 0.000E+00
 
     Adding external electric field

     Computed dipole along edir(3) : 
        Dipole                0.2258 Ry au,          0.5740 Debye
        Dipole field          0.0015 Ry au
 
        Potential amp.       -0.1070 Ry
        Total length         35.2972 bohr
 

     total cpu time spent up to now is       13.7 secs

     total energy              =   -1205.80139674 Ry
     Harris-Foulkes estimate   =   -1205.80927806 Ry
     estimated scf accuracy    <       0.02286529 Ry

     iteration #  7     ecut=    29.40 Ry     beta=0.10
     Davidson diagonalization with overlap
     ethr =  2.72E-05,  avg # of iterations =  5.5

     negative rho (up, down):  1.452E-03 0.000E+00
 
     Adding external electric field

     Computed dipole along edir(3) : 
        Dipole                0.2287 Ry au,          0.5814 Debye
        Dipole field          0.0015 Ry au
 
        Potential amp.       -0.1083 Ry
        Total length         35.2972 bohr
 

     total cpu time spent up to now is       15.8 secs

     total energy              =   -1205.80322660 Ry
     Harris-Foulkes estimate   =   -1205.80390577 Ry
     estimated scf accuracy    <       0.00582339 Ry

     iteration #  8     ecut=    29.40 Ry     beta=0.10
     Davidson diagonalization with overlap
     ethr =  6.93E-06,  avg # of iterations =  3.2

     negative rho (up, down):  1.733E-03 0.000E+00
 
     Adding external electric field

     Computed dipole along edir(3) : 
        Dipole                0.1845 Ry au,          0.4689 Debye
        Dipole field          0.0012 Ry au
 
        Potential amp.       -0.0874 Ry
        Total length         35.2972 bohr
 

     total cpu time spent up to now is       17.4 secs

     total energy              =   -1205.80286860 Ry
     Harris-Foulkes estimate   =   -1205.80357532 Ry
     estimated scf accuracy    <       0.00241537 Ry

     iteration #  9     ecut=    29.40 Ry     beta=0.10
     Davidson diagonalization with overlap
     ethr =  2.88E-06,  avg # of iterations =  3.5

     negative rho (up, down):  1.934E-03 0.000E+00
 
     Adding external electric field

     Computed dipole along edir(3) : 
        Dipole                0.1685 Ry au,          0.4282 Debye
        Dipole field          0.0011 Ry au
 
        Potential amp.       -0.0798 Ry
        Total length         35.2972 bohr
 

     total cpu time spent up to now is       19.2 secs

     total energy              =   -1205.80313602 Ry
     Harris-Foulkes estimate   =   -1205.80322897 Ry
     estimated scf accuracy    <       0.00039356 Ry

     iteration # 10     ecut=    29.40 Ry     beta=0.10
     Davidson diagonalization with overlap
     ethr =  4.69E-07,  avg # of iterations =  2.8

     negative rho (up, down):  2.076E-03 0.000E+00
 
     Adding external electric field

     Computed dipole along edir(3) : 
        Dipole                0.1708 Ry au,          0.4342 Debye
        Dipole field          0.0011 Ry au
 
        Potential amp.       -0.0809 Ry
        Total length         35.2972 bohr
 

     total cpu time spent up to now is       20.8 secs

     total energy              =   -1205.80315208 Ry
     Harris-Foulkes estimate   =   -1205.80316650 Ry
     estimated scf accuracy    <       0.00020614 Ry

     iteration # 11     ecut=    29.40 Ry     beta=0.10
     Davidson diagonalization with overlap
     ethr =  2.45E-07,  avg # of iterations =  1.7

     negative rho (up, down):  2.210E-03 0.000E+00
 
     Adding external electric field

     Computed dipole along edir(3) : 
        Dipole                0.1688 Ry au,          0.4291 Debye
        Dipole field          0.0011 Ry au
 
        Potential amp.       -0.0800 Ry
        Total length         35.2972 bohr
 

     total cpu time spent up to now is       22.2 secs

     total energy              =   -1205.80317056 Ry
     Harris-Foulkes estimate   =   -1205.80317366 Ry
     estimated scf accuracy    <       0.00002202 Ry

     iteration # 12     ecut=    29.40 Ry     beta=0.10
     Davidson diagonalization with overlap
     ethr =  2.62E-08,  avg # of iterations =  2.0

     negative rho (up, down):  2.312E-03 0.000E+00
 
     Adding external electric field

     Computed dipole along edir(3) : 
        Dipole                0.1670 Ry au,          0.4245 Debye
        Dipole field          0.0011 Ry au
 
        Potential amp.       -0.0791 Ry
        Total length         35.2972 bohr
 

     total cpu time spent up to now is       23.7 secs

     total energy              =   -1205.80317496 Ry
     Harris-Foulkes estimate   =   -1205.80317695 Ry
     estimated scf accuracy    <       0.00001328 Ry

     iteration # 13     ecut=    29.40 Ry     beta=0.10
     Davidson diagonalization with overlap
     ethr =  1.58E-08,  avg # of iterations =  1.0

     negative rho (up, down):  2.337E-03 0.000E+00
 
     Adding external electric field

     Computed dipole along edir(3) : 
        Dipole                0.1664 Ry au,          0.4229 Debye
        Dipole field          0.0011 Ry au
 
        Potential amp.       -0.0788 Ry
        Total length         35.2972 bohr
 

     total cpu time spent up to now is       25.0 secs

     total energy              =   -1205.80317626 Ry
     Harris-Foulkes estimate   =   -1205.80317677 Ry
     estimated scf accuracy    <       0.00000260 Ry

     iteration # 14     ecut=    29.40 Ry     beta=0.10
     Davidson diagonalization with overlap
     ethr =  3.09E-09,  avg # of iterations =  2.0

     negative rho (up, down):  2.365E-03 0.000E+00
 
     Adding external electric field

     Computed dipole along edir(3) : 
        Dipole                0.1675 Ry au,          0.4258 Debye
        Dipole field          0.0011 Ry au
 
        Potential amp.       -0.0794 Ry
        Total length         35.2972 bohr
 

     total cpu time spent up to now is       26.4 secs

     End of self-consistent calculation

          k = 0.0000 0.0000 0.0000 (  5071 PWs)   bands (ev):

   -90.5007 -90.2341 -90.1704 -90.1209 -54.0067 -53.9747 -53.9162 -53.7592
   -53.6743 -53.6490 -53.6265 -53.6082 -53.6064 -53.5851 -53.5394 -53.5340
   -15.4890  -6.2342  -5.2883  -4.6052  -4.5071  -4.3733  -4.1478  -3.5275
    -3.1499  -2.9940  -2.9600  -2.8779  -2.8567  -2.7603  -2.6124  -2.1320
    -1.9755  -1.8337  -1.7604  -1.5325  -1.4968  -1.4451  -1.2192  -1.1192
    -0.3014   0.6928   1.4449   2.6640   3.4952   4.5836   5.3364   5.8221
     6.4540   6.6688   7.5720   8.0567   9.0895   9.3359   9.4885   9.9139
    10.5202  11.0459  11.1320  11.4185  11.6287  12.2769  12.6346  12.8233
    13.2010  13.8389  13.9652  14.5171  15.0769  15.1415  15.8272  16.5936

          k = 0.0000 0.0998 0.0000 (  5031 PWs)   bands (ev):

   -90.4978 -90.2309 -90.1679 -90.1182 -54.0021 -53.9675 -53.9556 -53.7410
   -53.7123 -53.6519 -53.6464 -53.6367 -53.6055 -53.5893 -53.5668 -53.5390
   -15.0787  -6.2834  -4.8480  -4.2599  -4.0920  -3.7965  -3.6932  -3.4299
    -3.3632  -3.2548  -2.9654  -2.8354  -2.7057  -2.5312  -2.4883  -2.3743
    -2.2786  -2.1763  -2.0240  -1.9079  -1.7549  -1.5402  -1.3968  -0.8784
    -0.6985   1.5429   2.1405   3.2497   4.9815   6.0169   6.5423   6.9542
     7.8990   8.1873   8.4015   8.7472   9.0714   9.4143   9.6921  10.6577
    10.6680  10.8911  11.1306  11.4830  12.0469  12.3475  12.4539  13.2788
    13.4742  13.6540  14.0854  14.4165  14.8718  15.0515  15.4154  15.5481

          k = 0.0000-0.1996 0.0000 (  5048 PWs)   bands (ev):

   -90.4949 -90.2279 -90.1651 -90.1154 -54.0041 -53.9951 -53.9625 -53.7628
   -53.7457 -53.6682 -53.6430 -53.6390 -53.6190 -53.5975 -53.5662 -53.5459
   -14.5882  -6.9166  -5.0545  -4.5831  -4.4215  -4.3619  -4.1141  -3.9159
    -3.7456  -3.3980  -2.9304  -2.7206  -2.5324  -2.1871  -1.8917  -1.6900
    -1.5965  -1.5737  -1.3131  -1.1742  -1.1169  -1.0967  -0.8665  -0.4638
     2.1431   2.4967   3.0391   3.3575   4.8140   5.9486   6.3347   6.5671
     8.0484   8.4181   8.9682   9.7572  10.1173  10.4416  10.7113  10.8876
    11.0635  11.1030  11.2400  11.2610  11.5103  12.2348  12.3502  12.4938
    12.5746  12.7057  13.0736  13.2383  13.5812  13.8017  14.2428  14.4537

          k =-0.0864 0.0499 0.0000 (  5024 PWs)   bands (ev):

   -90.5006 -90.2336 -90.1710 -90.1209 -54.0059 -53.9657 -53.9149 -53.7252
   -53.6699 -53.6629 -53.6468 -53.6161 -53.6101 -53.5891 -53.5379 -53.5336
   -15.4780  -6.1370  -5.0844  -4.1941  -3.9848  -3.8637  -3.7471  -3.4081
    -3.2465  -3.1966  -2.9881  -2.8996  -2.6237  -2.4600  -2.4159  -2.3561
    -2.2555  -2.1917  -2.1244  -2.0319  -1.9388  -1.7574  -1.4939  -1.4073
    -1.0543  -0.2759   1.4713   2.4197   3.6171   5.2929   5.9376   6.2086
     6.6667   6.8406   7.1685   7.8891   8.2883   8.5484   9.1844   9.7541
    10.5019  10.8949  11.2377  12.0099  12.2320  12.6757  13.8158  14.0165
    14.5415  14.7612  15.5375  15.8497  16.0579  16.4849  16.5356  17.1490

          k =-0.0864 0.1497 0.0000 (  5031 PWs)   bands (ev):

   -90.4978 -90.2309 -90.1679 -90.1182 -54.0020 -53.9655 -53.9577 -53.7395
   -53.7133 -53.6571 -53.6451 -53.6334 -53.6053 -53.5893 -53.5669 -53.5391
   -15.0787  -6.2823  -4.8389  -4.2691  -4.0080  -3.7554  -3.7039  -3.5486
    -3.3587  -3.2482  -2.9679  -2.8609  -2.6912  -2.5559  -2.4547  -2.3535
    -2.3385  -2.1717  -2.0760  -1.9154  -1.8239  -1.5165  -1.4315  -0.8620
    -0.5506   1.7110   2.0669   3.3451   4.8747   5.9735   6.5034   6.9043
     7.8096   8.1053   8.3497   8.7479   9.0142   9.4446   9.6457  10.5655
    10.6926  10.9934  11.1980  11.6542  12.0428  12.2907  12.5299  13.4231
    13.6087  13.7357  14.1630  14.4820  14.8484  15.1536  15.4280  15.5099

          k =-0.0864-0.1497 0.0000 (  5038 PWs)   bands (ev):

   -90.4949 -90.2280 -90.1651 -90.1154 -54.0025 -53.9940 -53.9575 -53.7516
   -53.7180 -53.6953 -53.6545 -53.6409 -53.6250 -53.6000 -53.5660 -53.5451
   -14.5948  -6.9188  -4.9801  -4.0606  -3.7815  -3.7064  -3.5503  -3.4948
    -3.4820  -3.3066  -2.9687  -2.9491  -2.7713  -2.7128  -2.5620  -2.5043
    -2.3152  -2.1209  -1.8309  -1.6931  -1.4575  -1.2674  -0.7040  -0.3817
     1.6894   2.0137   3.3170   4.3931   5.5586   7.6596   8.1151   8.2105
     8.3530   8.5063   8.8721   9.1558   9.5519   9.6117   9.8734  10.0184
    10.5383  10.8201  11.0125  11.4285  11.8511  11.9499  12.3396  12.4769
    12.9381  13.6144  13.6941  13.7593  14.2654  14.5717  14.7915  14.8630

     the Fermi energy is     1.9554 ev

!    total energy              =   -1205.80318289 Ry
     Harris-Foulkes estimate   =   -1205.80317399 Ry
     estimated scf accuracy    <       0.00000034 Ry

     The total energy is the sum of the following terms:

     one-electron contribution =   -6044.79818010 Ry
     hartree contribution      =    3020.40401760 Ry
     xc contribution           =    -123.30824116 Ry
     ewald contribution        =    1941.90654786 Ry
     electric field correction =       0.00018833 Ry
     smearing contrib. (-TS)   =      -0.00751541 Ry

     convergence has been achieved in  14 iterations

     Forces acting on atoms (Ry/au):


     negative rho (up, down):  2.365E-03 0.000E+00
     atom    1 type  1   force =    -0.00229339    0.00216891   -0.00905547
     atom    2 type  1   force =     0.00307014   -0.00161962   -0.01218026
     atom    3 type  1   force =     0.00594531   -0.00881970    0.02702439
     atom    4 type  1   force =    -0.02976773    0.02135803   -0.08366228
     atom    5 type  2   force =     0.00878080    0.00756028    0.02994188
     atom    6 type  3   force =    -0.01122255    0.03829730    0.04868146
     atom    7 type  3   force =     0.00291335   -0.05439546    0.02146485
     atom    8 type  3   force =     0.02257406   -0.00454975   -0.02221456

     Total force =     0.137414     Total SCF correction =     0.003442
 !ASE
     Check: negative starting charge=   -0.002416
     NEW-OLD atomic charge density approx. for the potential
     Check: negative starting charge=   -0.002379

     negative rho (up, down):  2.335E-03 0.000E+00
 
     Adding external electric field

     Computed dipole along edir(3) : 
        Dipole                0.1675 Ry au,          0.4258 Debye
        Dipole field          0.0011 Ry au
 
        Potential amp.       -0.0794 Ry
        Total length         35.2972 bohr
 

     total cpu time spent up to now is       27.6 secs

     per-process dynamical memory:    31.3 Mb

     Self-consistent Calculation

     iteration #  1     ecut=    29.40 Ry     beta=0.10
     Davidson diagonalization with overlap
     ethr =  3.09E-09,  avg # of iterations =  6.3

     negative rho (up, down):  2.319E-03 0.000E+00
 
     Adding external electric field

     Computed dipole along edir(3) : 
        Dipole                0.2290 Ry au,          0.5820 Debye
        Dipole field          0.0015 Ry au
 
        Potential amp.       -0.1085 Ry
        Total length         35.2972 bohr
 

     total cpu time spent up to now is       31.0 secs

     total energy              =   -1205.80519560 Ry
     Harris-Foulkes estimate   =   -1205.81443605 Ry
     estimated scf accuracy    <       0.05987644 Ry

     iteration #  2     ecut=    29.40 Ry     beta=0.10
     Davidson diagonalization with overlap
     ethr =  7.13E-05,  avg # of iterations =  2.2

     negative rho (up, down):  2.310E-03 0.000E+00
 
     Adding external electric field

     Computed dipole along edir(3) : 
        Dipole                0.1601 Ry au,          0.4069 Debye
        Dipole field          0.0011 Ry au
 
        Potential amp.       -0.0758 Ry
        Total length         35.2972 bohr
 

     total cpu time spent up to now is       32.5 secs

     total energy              =   -1205.80628647 Ry
     Harris-Foulkes estimate   =   -1205.81008819 Ry
     estimated scf accuracy    <       0.03497892 Ry

     iteration #  3     ecut=    29.40 Ry     beta=0.10
     Davidson diagonalization with overlap
     ethr =  4.16E-05,  avg # of iterations =  2.8

     negative rho (up, down):  2.310E-03 0.000E+00
 
     Adding external electric field

     Computed dipole along edir(3) : 
        Dipole                0.1285 Ry au,          0.3267 Debye
        Dipole field          0.0009 Ry au
 
        Potential amp.       -0.0609 Ry
        Total length         35.2972 bohr
 

     total cpu time spent up to now is       34.1 secs

     total energy              =   -1205.80442575 Ry
     Harris-Foulkes estimate   =   -1205.80776326 Ry
     estimated scf accuracy    <       0.01239730 Ry

     iteration #  4     ecut=    29.40 Ry     beta=0.10
     Davidson diagonalization with overlap
     ethr =  1.48E-05,  avg # of iterations =  3.8

     negative rho (up, down):  2.350E-03 0.000E+00
 
     Adding external electric field

     Computed dipole along edir(3) : 
        Dipole                0.1249 Ry au,          0.3176 Debye
        Dipole field          0.0008 Ry au
 
        Potential amp.       -0.0592 Ry
        Total length         35.2972 bohr
 

     total cpu time spent up to now is       35.9 secs

     total energy              =   -1205.80507832 Ry
     Harris-Foulkes estimate   =   -1205.80548852 Ry
     estimated scf accuracy    <       0.00256300 Ry

     iteration #  5     ecut=    29.40 Ry     beta=0.10
     Davidson diagonalization with overlap
     ethr =  3.05E-06,  avg # of iterations =  3.8

     negative rho (up, down):  2.491E-03 0.000E+00
 
     Adding external electric field

     Computed dipole along edir(3) : 
        Dipole                0.1289 Ry au,          0.3277 Debye
        Dipole field          0.0009 Ry au
 
        Potential amp.       -0.0611 Ry
        Total length         35.2972 bohr
 

     total cpu time spent up to now is       37.6 secs

     total energy              =   -1205.80509539 Ry
     Harris-Foulkes estimate   =   -1205.80521419 Ry
     estimated scf accuracy    <       0.00097713 Ry

     iteration #  6     ecut=    29.40 Ry     beta=0.10
     Davidson diagonalization with overlap
     ethr =  1.16E-06,  avg # of iterations =  2.8

     negative rho (up, down):  2.479E-03 0.000E+00
 
     Adding external electric field

     Computed dipole along edir(3) : 
        Dipole                0.1375 Ry au,          0.3495 Debye
        Dipole field          0.0009 Ry au
 
        Potential amp.       -0.0651 Ry
        Total length         35.2972 bohr
 

     total cpu time spent up to now is       39.2 secs

     total energy              =   -1205.80516474 Ry
     Harris-Foulkes estimate   =   -1205.80519388 Ry
     estimated scf accuracy    <       0.00047547 Ry

     iteration #  7     ecut=    29.40 Ry     beta=0.10
     Davidson diagonalization with overlap
     ethr =  5.66E-07,  avg # of iterations =  2.7

     negative rho (up, down):  2.496E-03 0.000E+00
 
     Adding external electric field

     Computed dipole along edir(3) : 
        Dipole                0.1460 Ry au,          0.3710 Debye
        Dipole field          0.0010 Ry au
 
        Potential amp.       -0.0691 Ry
        Total length         35.2972 bohr
 

     total cpu time spent up to now is       40.8 secs

     total energy              =   -1205.80518593 Ry
     Harris-Foulkes estimate   =   -1205.80517332 Ry
     estimated scf accuracy    <       0.00005519 Ry

     iteration #  8     ecut=    29.40 Ry     beta=0.10
     Davidson diagonalization with overlap
     ethr =  6.57E-08,  avg # of iterations =  3.0

     negative rho (up, down):  2.469E-03 0.000E+00
 
     Adding external electric field

     Computed dipole along edir(3) : 
        Dipole                0.1455 Ry au,          0.3699 Debye
        Dipole field          0.0010 Ry au
 
        Potential amp.       -0.0689 Ry
        Total length         35.2972 bohr
 

     total cpu time spent up to now is       42.4 secs

     total energy              =   -1205.80519293 Ry
     Harris-Foulkes estimate   =   -1205.80519261 Ry
     estimated scf accuracy    <       0.00000727 Ry

     iteration #  9     ecut=    29.40 Ry     beta=0.10
     Davidson diagonalization with overlap
     ethr =  8.65E-09,  avg # of iterations =  1.0

     negative rho (up, down):  2.449E-03 0.000E+00
 
     Adding external electric field

     Computed dipole along edir(3) : 
        Dipole                0.1465 Ry au,          0.3724 Debye
        Dipole field          0.0010 Ry au
 
        Potential amp.       -0.0694 Ry
        Total length         35.2972 bohr
 

     total cpu time spent up to now is       43.7 secs

     total energy              =   -1205.80519392 Ry
     Harris-Foulkes estimate   =   -1205.80519135 Ry
     estimated scf accuracy    <       0.00000395 Ry

     iteration # 10     ecut=    29.40 Ry     beta=0.10
     Davidson diagonalization with overlap
     ethr =  4.71E-09,  avg # of iterations =  2.0

     negative rho (up, down):  2.330E-03 0.000E+00
 
     Adding external electric field

     Computed dipole along edir(3) : 
        Dipole                0.1431 Ry au,          0.3637 Debye
        Dipole field          0.0010 Ry au
 
        Potential amp.       -0.0678 Ry
        Total length         35.2972 bohr
 

     total cpu time spent up to now is       45.1 secs

     End of self-consistent calculation

          k = 0.0000 0.0000 0.0000 (  5071 PWs)   bands (ev):

   -90.5662 -90.2991 -90.2431 -90.1965 -54.0695 -54.0342 -53.9787 -53.8264
   -53.7417 -53.7131 -53.6968 -53.6826 -53.6806 -53.6572 -53.6125 -53.6091
   -14.5302  -5.8368  -5.1872  -4.6276  -4.5757  -4.4174  -4.1942  -3.4991
    -3.0726  -3.0434  -3.0046  -2.9423  -2.9218  -2.8185  -2.6669  -2.1366
    -2.0484  -1.8462  -1.7957  -1.5902  -1.5277  -1.4853  -1.2898  -1.1889
     0.1480   0.5638   1.4572   2.5863   3.3498   4.6143   5.3451   5.7843
     6.4021   6.6936   7.3139   7.8785   8.1060   9.0023   9.3350   9.7724
    10.5163  10.9826  11.1298  11.4244  11.5774  12.2532  12.6088  12.8106
    13.1602  13.7276  13.9643  14.3727  14.9462  15.1278  15.7772  16.4385

          k = 0.0000 0.0998 0.0000 (  5031 PWs)   bands (ev):

   -90.5633 -90.2959 -90.2407 -90.1938 -54.0637 -54.0267 -54.0194 -53.8081
   -53.7788 -53.7259 -53.7136 -53.7056 -53.6801 -53.6631 -53.6410 -53.6106
   -14.0395  -5.6578  -4.7868  -4.1568  -4.1210  -3.8480  -3.7521  -3.4887
    -3.4143  -3.2899  -3.0356  -2.8942  -2.7680  -2.5955  -2.5449  -2.4323
    -2.3164  -2.2468  -2.0788  -1.9740  -1.7842  -1.6035  -1.4561  -0.9946
    -0.7200   1.4540   2.0131   3.3152   4.8593   5.9917   6.5364   6.9403
     7.7830   8.1272   8.3052   8.6852   8.9943   9.4049   9.6679  10.4065
    10.6072  10.6942  11.0386  11.1788  11.8547  12.0511  12.3907  13.0927
    13.3276  13.5880  13.9868  14.2667  14.7919  14.9831  15.4184  15.5441

          k = 0.0000-0.1996 0.0000 (  5048 PWs)   bands (ev):

   -90.5604 -90.2929 -90.2379 -90.1910 -54.0667 -54.0565 -54.0232 -53.8301
   -53.8144 -53.7388 -53.7151 -53.7039 -53.6949 -53.6729 -53.6373 -53.6177
   -13.4230  -6.4495  -4.8336  -4.6362  -4.4858  -4.4150  -4.1753  -3.9762
    -3.7486  -3.4280  -2.9544  -2.7964  -2.6014  -2.2295  -1.9619  -1.7557
    -1.6633  -1.6430  -1.3821  -1.2449  -1.1897  -1.1682  -0.9960  -0.5032
     2.0386   2.4105   2.9601   3.2730   4.7936   5.8547   6.2673   6.5055
     7.9573   8.2906   8.5410   9.7778  10.0799  10.3908  10.6707  10.8498
    11.0352  11.0966  11.2315  11.2976  11.5078  12.1646  12.2709  12.4319
    12.5430  12.6865  13.0102  13.1287  13.4934  13.7659  14.2002  14.3871

          k =-0.0864 0.0499 0.0000 (  5024 PWs)   bands (ev):

   -90.5661 -90.2985 -90.2437 -90.1966 -54.0656 -54.0281 -53.9774 -53.7902
   -53.7368 -53.7355 -53.7117 -53.6899 -53.6848 -53.6610 -53.6120 -53.6076
   -14.5161  -5.5567  -5.0790  -4.2426  -4.0594  -3.9308  -3.8065  -3.4678
    -3.2884  -3.2265  -3.0490  -2.8006  -2.6663  -2.5215  -2.4866  -2.4164
    -2.3280  -2.2470  -2.1855  -2.0470  -1.9910  -1.7429  -1.4820  -1.4785
    -1.1026   0.0852   1.4002   2.2071   3.7258   5.0896   5.9094   6.2233
     6.6767   6.8415   7.1376   7.7677   8.0097   8.2630   8.9627   9.1624
    10.5086  10.8727  11.1757  11.9063  12.1541  12.5406  13.7699  14.0169
    14.4911  14.6020  15.3989  15.5162  15.9234  16.3216  16.4510  17.0033

          k =-0.0864 0.1497 0.0000 (  5031 PWs)   bands (ev):

   -90.5633 -90.2959 -90.2407 -90.1938 -54.0632 -54.0275 -54.0192 -53.8063
   -53.7800 -53.7309 -53.7109 -53.7040 -53.6798 -53.6632 -53.6411 -53.6106
   -14.0395  -5.6670  -4.7956  -4.2006  -4.0045  -3.7852  -3.7336  -3.6028
    -3.4065  -3.2944  -3.0310  -2.9172  -2.7410  -2.6158  -2.5247  -2.4067
    -2.3510  -2.2371  -2.1350  -1.9854  -1.8859  -1.5855  -1.4915  -0.9121
    -0.6706   1.6130   1.9494   3.4022   4.7621   5.9554   6.5043   6.8740
     7.6766   8.0718   8.2865   8.6643   8.9244   9.3774   9.6464  10.4181
    10.6192  10.8824  11.0483  11.2949  11.8810  12.1313  12.3301  13.1495
    13.4884  13.6993  14.1190  14.3427  14.7439  15.0342  15.4172  15.4813

          k =-0.0864-0.1497 0.0000 (  5038 PWs)   bands (ev):

   -90.5604 -90.2929 -90.2379 -90.1911 -54.0645 -54.0543 -54.0197 -53.8183
   -53.7831 -53.7699 -53.7272 -53.7061 -53.7010 -53.6750 -53.6371 -53.6168
   -13.4313  -6.4548  -4.6722  -4.1214  -3.8510  -3.7722  -3.6195  -3.5669
    -3.5595  -3.3450  -3.0389  -2.9812  -2.8399  -2.7801  -2.6232  -2.5694
    -2.3676  -2.1828  -1.8951  -1.7558  -1.5272  -1.3385  -0.8765  -0.3578
     1.6354   1.9220   3.3269   4.3135   5.4894   7.6012   7.8733   8.0850
     8.2360   8.4323   8.8367   9.1146   9.5365   9.5722   9.7720   9.8655
    10.4635  10.7742  10.9564  11.3309  11.6186  11.8855  12.2392  12.2975
    12.8515  13.5129  13.5619  13.6923  14.2440  14.5595  14.7299  14.7497

     the Fermi energy is     1.8489 ev

!    total energy              =   -1205.80519977 Ry
     Harris-Foulkes estimate   =   -1205.80520096 Ry
     estimated scf accuracy    <       0.00000075 Ry

     The total energy is the sum of the following terms:

     one-electron contribution =   -6019.53772442 Ry
     hartree contribution      =    3007.63539363 Ry
     xc contribution           =    -123.12767674 Ry
     ewald contribution        =    1929.23292209 Ry
     electric field correction =       0.00013741 Ry
     smearing contrib. (-TS)   =      -0.00825174 Ry

     convergence has been achieved in  10 iterations

     Forces acting on atoms (Ry/au):


     negative rho (up, down):  2.330E-03 0.000E+00
     atom    1 type  1   force =    -0.00231856    0.00223360   -0.00842964
     atom    2 type  1   force =     0.00293806   -0.00180050   -0.01443206
     atom    3 type  1   force =     0.00559638   -0.00822390    0.02500473
     atom    4 type  1   force =    -0.01965994    0.01603451   -0.05059694
     atom    5 type  2   force =    -0.04566562   -0.08647006    0.09326398
     atom    6 type  3   force =    -0.00001820   -0.02020944   -0.06016148
     atom    7 type  3   force =     0.03610660    0.10115298    0.02481798
     atom    8 type  3   force =     0.02302128   -0.00271719   -0.00946657

     Total force =     0.198233     Total SCF correction =     0.003872
 !ASE
     Check: negative starting charge=   -0.002379
     NEW-OLD atomic charge density approx. for the potential
     Check: negative starting charge=   -0.002401

     negative rho (up, down):  2.408E-03 0.000E+00
 
     Adding external electric field

     Computed dipole along edir(3) : 
        Dipole                0.1431 Ry au,          0.3637 Debye
        Dipole field          0.0010 Ry au
 
        Potential amp.       -0.0678 Ry
        Total length         35.2972 bohr
 

     total cpu time spent up to now is       46.3 secs

     per-process dynamical memory:    31.3 Mb

     Self-consistent Calculation

     iteration #  1     ecut=    29.40 Ry     beta=0.10
     Davidson diagonalization with overlap
     ethr =  4.71E-09,  avg # of iterations =  6.2

     negative rho (up, down):  2.402E-03 0.000E+00
 
     Adding external electric field

     Computed dipole along edir(3) : 
        Dipole                0.1201 Ry au,          0.3054 Debye
        Dipole field          0.0008 Ry au
 
        Potential amp.       -0.0569 Ry
        Total length         35.2972 bohr
 

     total cpu time spent up to now is       49.6 secs

     total energy              =   -1205.81369753 Ry
     Harris-Foulkes estimate   =   -1205.81541881 Ry
     estimated scf accuracy    <       0.01115187 Ry

     iteration #  2     ecut=    29.40 Ry     beta=0.10
     Davidson diagonalization with overlap
     ethr =  1.33E-05,  avg # of iterations =  2.3

     negative rho (up, down):  2.398E-03 0.000E+00
 
     Adding external electric field

     Computed dipole along edir(3) : 
        Dipole                0.1487 Ry au,          0.3780 Debye
        Dipole field          0.0010 Ry au
 
        Potential amp.       -0.0704 Ry
        Total length         35.2972 bohr
 

     total cpu time spent up to now is       51.1 secs

     total energy              =   -1205.81377806 Ry
     Harris-Foulkes estimate   =   -1205.81436721 Ry
     estimated scf accuracy    <       0.00617032 Ry

     iteration #  3     ecut=    29.40 Ry     beta=0.10
     Davidson diagonalization with overlap
     ethr =  7.35E-06,  avg # of iterations =  3.2

     negative rho (up, down):  2.393E-03 0.000E+00
 
     Adding external electric field

     Computed dipole along edir(3) : 
        Dipole                0.1627 Ry au,          0.4135 Debye
        Dipole field          0.0011 Ry au
 
        Potential amp.       -0.0771 Ry
        Total length         35.2972 bohr
 

     total cpu time spent up to now is       52.7 secs

     total energy              =   -1205.81331059 Ry
     Harris-Foulkes estimate   =   -1205.81398357 Ry
     estimated scf accuracy    <       0.00272652 Ry

     iteration #  4     ecut=    29.40 Ry     beta=0.10
     Davidson diagonalization with overlap
     ethr =  3.25E-06,  avg # of iterations =  3.5

     negative rho (up, down):  2.393E-03 0.000E+00
 
     Adding external electric field

     Computed dipole along edir(3) : 
        Dipole                0.1667 Ry au,          0.4237 Debye
        Dipole field          0.0011 Ry au
 
        Potential amp.       -0.0790 Ry
        Total length         35.2972 bohr
 

     total cpu time spent up to now is       54.4 secs

     total energy              =   -1205.81348068 Ry
     Harris-Foulkes estimate   =   -1205.81354838 Ry
     estimated scf accuracy    <       0.00058140 Ry

     iteration #  5     ecut=    29.40 Ry     beta=0.10
     Davidson diagonalization with overlap
     ethr =  6.92E-07,  avg # of iterations =  3.0

     negative rho (up, down):  2.403E-03 0.000E+00
 
     Adding external electric field

     Computed dipole along edir(3) : 
        Dipole                0.1631 Ry au,          0.4145 Debye
        Dipole field          0.0011 Ry au
 
        Potential amp.       -0.0772 Ry
        Total length         35.2972 bohr
 

     total cpu time spent up to now is       56.0 secs

     total energy              =   -1205.81350011 Ry
     Harris-Foulkes estimate   =   -1205.81352031 Ry
     estimated scf accuracy    <       0.00019287 Ry

     iteration #  6     ecut=    29.40 Ry     beta=0.10
     Davidson diagonalization with overlap
     ethr =  2.30E-07,  avg # of iterations =  2.0

     negative rho (up, down):  2.400E-03 0.000E+00
 
     Adding external electric field

     Computed dipole along edir(3) : 
        Dipole                0.1615 Ry au,          0.4104 Debye
        Dipole field          0.0011 Ry au
 
        Potential amp.       -0.0765 Ry
        Total length         35.2972 bohr
 

     total cpu time spent up to now is       57.5 secs

     total energy              =   -1205.81351174 Ry
     Harris-Foulkes estimate   =   -1205.81351646 Ry
     estimated scf accuracy    <       0.00004362 Ry

     iteration #  7     ecut=    29.40 Ry     beta=0.10
     Davidson diagonalization with overlap
     ethr =  5.19E-08,  avg # of iterations =  2.0

     negative rho (up, down):  2.396E-03 0.000E+00
 
     Adding external electric field

     Computed dipole along edir(3) : 
        Dipole                0.1578 Ry au,          0.4012 Debye
        Dipole field          0.0011 Ry au
 
        Potential amp.       -0.0748 Ry
        Total length         35.2972 bohr
 

     total cpu time spent up to now is       58.9 secs

     total energy              =   -1205.81351381 Ry
     Harris-Foulkes estimate   =   -1205.81352361 Ry
     estimated scf accuracy    <       0.00001462 Ry

     iteration #  8     ecut=    29.40 Ry     beta=0.10
     Davidson diagonalization with overlap
     ethr =  1.74E-08,  avg # of iterations =  2.0

     negative rho (up, down):  2.387E-03 0.000E+00
 
     Adding external electric field

     Computed dipole along edir(3) : 
        Dipole                0.1577 Ry au,          0.4010 Debye
        Dipole field          0.0011 Ry au
 
        Potential amp.       -0.0747 Ry
        Total length         35.2972 bohr
 

     total cpu time spent up to now is       60.4 secs

     total energy              =   -1205.81351558 Ry
     Harris-Foulkes estimate   =   -1205.81351557 Ry
     estimated scf accuracy    <       0.00000147 Ry

     iteration #  9     ecut=    29.40 Ry     beta=0.10
     Davidson diagonalization with overlap
     ethr =  1.75E-09,  avg # of iterations =  2.0

     negative rho (up, down):  2.345E-03 0.000E+00
 
     Adding external electric field

     Computed dipole along edir(3) : 
        Dipole                0.1576 Ry au,          0.4007 Debye
        Dipole field          0.0011 Ry au
 
        Potential amp.       -0.0747 Ry
        Total length         35.2972 bohr
 

     total cpu time spent up to now is       61.9 secs

     End of self-consistent calculation

          k = 0.0000 0.0000 0.0000 (  5071 PWs)   bands (ev):

   -90.5276 -90.2639 -90.2047 -90.1545 -54.0279 -54.0025 -53.9421 -53.7901
   -53.7052 -53.6782 -53.6593 -53.6419 -53.6408 -53.6181 -53.5718 -53.5678
   -14.9860  -6.0054  -5.2544  -4.6090  -4.5394  -4.3917  -4.1674  -3.4984
    -3.0807  -3.0220  -2.9895  -2.9073  -2.8883  -2.7880  -2.6361  -2.1269
    -2.0081  -1.8369  -1.7748  -1.5556  -1.5052  -1.4712  -1.2504  -1.1510
    -0.1048   0.6309   1.4536   2.6293   3.4291   4.5987   5.3434   5.8044
     6.4302   6.6883   7.4705   8.0189   8.6198   9.1529   9.3649   9.8422
    10.5134  11.0182  11.1306  11.4144  11.5968  12.2651  12.6218  12.8182
    13.1836  13.7862  13.9653  14.4437  15.0294  15.1134  15.8051  16.5257

          k = 0.0000 0.0998 0.0000 (  5031 PWs)   bands (ev):

   -90.5247 -90.2607 -90.2022 -90.1518 -54.0231 -53.9944 -53.9825 -53.7719
   -53.7427 -53.6864 -53.6771 -53.6688 -53.6392 -53.6227 -53.6003 -53.5711
   -14.5335  -5.9740  -4.7931  -4.2025  -4.1075  -3.8204  -3.7205  -3.4568
    -3.3863  -3.2700  -2.9975  -2.8615  -2.7341  -2.5601  -2.5123  -2.4002
    -2.2958  -2.2077  -2.0488  -1.9377  -1.7674  -1.5685  -1.4235  -0.9307
    -0.7085   1.5009   2.0804   3.2855   4.9272   6.0087   6.5387   6.9506
     7.8525   8.1568   8.3584   8.7239   9.0381   9.4075   9.6849  10.6254
    10.6366  10.7812  11.1083  11.2934  11.9688  12.1719  12.4179  13.2085
    13.3859  13.6055  14.0323  14.3328  14.8345  15.0136  15.4147  15.5458

          k = 0.0000-0.1996 0.0000 (  5048 PWs)   bands (ev):

   -90.5218 -90.2577 -90.1994 -90.1490 -54.0294 -54.0165 -53.9907 -53.7937
   -53.7773 -53.7009 -53.6767 -53.6685 -53.6529 -53.6313 -53.5993 -53.5777
   -13.9785  -6.6903  -4.9160  -4.6172  -4.4506  -4.3846  -4.1421  -3.9420
    -3.7444  -3.4113  -2.9416  -2.7543  -2.5634  -2.2062  -1.9233  -1.7194
    -1.6266  -1.6053  -1.3430  -1.2062  -1.1505  -1.1287  -0.9253  -0.4878
     2.0936   2.4566   3.0026   3.3184   4.8135   5.9080   6.3040   6.5432
     8.0268   8.3658   8.7472   9.7751  10.0988  10.4225  10.6902  10.8722
    11.0550  11.0984  11.2378  11.2763  11.5080  12.2084  12.3185  12.4789
    12.5544  12.6981  13.0603  13.1844  13.5382  13.7857  14.2249  14.4193

          k =-0.0864 0.0499 0.0000 (  5024 PWs)   bands (ev):

   -90.5275 -90.2634 -90.2052 -90.1546 -54.0261 -53.9943 -53.9409 -53.7550
   -53.7005 -53.6969 -53.6762 -53.6495 -53.6450 -53.6221 -53.5706 -53.5671
   -14.9734  -5.8439  -5.0714  -4.2143  -4.0176  -3.8943  -3.7731  -3.4329
    -3.2534  -3.2094  -3.0139  -2.8362  -2.6427  -2.4875  -2.4471  -2.3827
    -2.2878  -2.2143  -2.1502  -2.0293  -1.9640  -1.7471  -1.4883  -1.4400
    -1.0765  -0.1301   1.4373   2.3189   3.6774   5.2093   5.9318   6.2119
     6.6699   6.8444   7.1560   7.8837   8.2567   8.3720   9.1004   9.3048
    10.5049  10.8827  11.2047  11.9621  12.1963  12.6072  13.7964  14.0158
    14.5200  14.6862  15.4917  15.6687  15.9869  16.4008  16.4947  17.0830

          k =-0.0864 0.1497 0.0000 (  5031 PWs)   bands (ev):

   -90.5247 -90.2607 -90.2022 -90.1518 -54.0228 -53.9940 -53.9833 -53.7702
   -53.7438 -53.6916 -53.6750 -53.6663 -53.6389 -53.6228 -53.6004 -53.5712
   -14.5335  -5.9761  -4.7955  -4.2241  -4.0053  -3.7626  -3.7283  -3.5733
    -3.3795  -3.2696  -2.9964  -2.8858  -2.7132  -2.5828  -2.4859  -2.3719
    -2.3503  -2.2011  -2.1033  -1.9471  -1.8513  -1.5473  -1.4587  -0.8828
    -0.6072   1.6651   2.0115   3.3775   4.8251   5.9680   6.5044   6.8930
     7.7519   8.0875   8.3225   8.7138   8.9740   9.4165   9.6468  10.5184
    10.6680  10.9487  11.1522  11.4794  11.9682  12.2202  12.4061  13.2914
    13.5207  13.7114  14.1385  14.4076  14.7930  15.0931  15.4225  15.4917

          k =-0.0864-0.1497 0.0000 (  5038 PWs)   bands (ev):

   -90.5218 -90.2577 -90.1994 -90.1490 -54.0273 -54.0153 -53.9861 -53.7821
   -53.7478 -53.7301 -53.6886 -53.6704 -53.6590 -53.6337 -53.5991 -53.5768
   -13.9860  -6.6938  -4.8121  -4.0857  -3.8125  -3.7358  -3.5816  -3.5277
    -3.5163  -3.3254  -2.9994  -2.9614  -2.8027  -2.7434  -2.5898  -2.5339
    -2.3386  -2.1487  -1.8599  -1.7214  -1.4891  -1.2994  -0.7873  -0.3705
     1.6659   1.9710   3.3262   4.3565   5.5274   7.6548   8.0157   8.1438
     8.2954   8.4722   8.8539   9.1416   9.5439   9.5995   9.8691   9.9068
    10.5014  10.7984  10.9869  11.3811  11.7409  11.9290  12.3199  12.3627
    12.8957  13.5743  13.6349  13.7124  14.2561  14.5647  14.7810  14.8278

     the Fermi energy is     1.9053 ev

!    total energy              =   -1205.81351746 Ry
     Harris-Foulkes estimate   =   -1205.81351590 Ry
     estimated scf accuracy    <       0.00000035 Ry

     The total energy is the sum of the following terms:

     one-electron contribution =   -6032.38269603 Ry
     hartree contribution      =    3014.14247982 Ry
     xc contribution           =    -123.21503157 Ry
     ewald contribution        =    1935.64940833 Ry
     electric field correction =       0.00016675 Ry
     smearing contrib. (-TS)   =      -0.00784476 Ry

     convergence has been achieved in   9 iterations

     Forces acting on atoms (Ry/au):


     negative rho (up, down):  2.345E-03 0.000E+00
     atom    1 type  1   force =    -0.00219288    0.00209360   -0.00877506
     atom    2 type  1   force =     0.00285475   -0.00160530   -0.01331364
     atom    3 type  1   force =     0.00579062   -0.00857327    0.02614089
     atom    4 type  1   force =    -0.02459168    0.01893822   -0.06581405
     atom    5 type  2   force =    -0.02619915   -0.06115039    0.06687028
     atom    6 type  3   force =    -0.00598204    0.00742527   -0.01197984
     atom    7 type  3   force =     0.02729664    0.04678359    0.02324363
     atom    8 type  3   force =     0.02302374   -0.00391173   -0.01637220

     Total force =     0.140637     Total SCF correction =     0.002072
 !ASE
     Check: negative starting charge=   -0.002401
     NEW-OLD atomic charge density approx. for the potential
     Check: negative starting charge=   -0.002356

     negative rho (up, down):  2.309E-03 0.000E+00
 
     Adding external electric field

     Computed dipole along edir(3) : 
        Dipole                0.1577 Ry au,          0.4007 Debye
        Dipole field          0.0011 Ry au
 
        Potential amp.       -0.0747 Ry
        Total length         35.2972 bohr
 

     total cpu time spent up to now is       63.1 secs

     per-process dynamical memory:    31.3 Mb

     Self-consistent Calculation

     iteration #  1     ecut=    29.40 Ry     beta=0.10
     Davidson diagonalization with overlap
     ethr =  1.75E-09,  avg # of iterations =  8.8

     negative rho (up, down):  2.299E-03 0.000E+00
 
     Adding external electric field

     Computed dipole along edir(3) : 
        Dipole                0.0773 Ry au,          0.1965 Debye
        Dipole field          0.0005 Ry au
 
        Potential amp.       -0.0366 Ry
        Total length         35.2972 bohr
 

     total cpu time spent up to now is       67.1 secs

     total energy              =   -1205.83094018 Ry
     Harris-Foulkes estimate   =   -1205.83539106 Ry
     estimated scf accuracy    <       0.03242916 Ry

     iteration #  2     ecut=    29.40 Ry     beta=0.10
     Davidson diagonalization with overlap
     ethr =  3.86E-05,  avg # of iterations =  3.0

     negative rho (up, down):  2.294E-03 0.000E+00
 
     Adding external electric field

     Computed dipole along edir(3) : 
        Dipole                0.1095 Ry au,          0.2782 Debye
        Dipole field          0.0007 Ry au
 
        Potential amp.       -0.0518 Ry
        Total length         35.2972 bohr
 

     total cpu time spent up to now is       68.7 secs

     total energy              =   -1205.83145885 Ry
     Harris-Foulkes estimate   =   -1205.83307939 Ry
     estimated scf accuracy    <       0.02043005 Ry

     iteration #  3     ecut=    29.40 Ry     beta=0.10
     Davidson diagonalization with overlap
     ethr =  2.43E-05,  avg # of iterations =  2.2

     negative rho (up, down):  2.344E-03 0.000E+00
 
     Adding external electric field

     Computed dipole along edir(3) : 
        Dipole                0.0801 Ry au,          0.2035 Debye
        Dipole field          0.0005 Ry au
 
        Potential amp.       -0.0379 Ry
        Total length         35.2972 bohr
 

     total cpu time spent up to now is       70.2 secs

     total energy              =   -1205.82964791 Ry
     Harris-Foulkes estimate   =   -1205.83209355 Ry
     estimated scf accuracy    <       0.01034637 Ry

     iteration #  4     ecut=    29.40 Ry     beta=0.10
     Davidson diagonalization with overlap
     ethr =  1.23E-05,  avg # of iterations =  3.8

     negative rho (up, down):  2.505E-03 0.000E+00
 
     Adding external electric field

     Computed dipole along edir(3) : 
        Dipole                0.0829 Ry au,          0.2107 Debye
        Dipole field          0.0006 Ry au
 
        Potential amp.       -0.0393 Ry
        Total length         35.2972 bohr
 

     total cpu time spent up to now is       72.0 secs

     total energy              =   -1205.82992151 Ry
     Harris-Foulkes estimate   =   -1205.83033477 Ry
     estimated scf accuracy    <       0.00281203 Ry

     iteration #  5     ecut=    29.40 Ry     beta=0.10
     Davidson diagonalization with overlap
     ethr =  3.35E-06,  avg # of iterations =  2.5

     negative rho (up, down):  2.591E-03 0.000E+00
 
     Adding external electric field

     Computed dipole along edir(3) : 
        Dipole                0.0870 Ry au,          0.2212 Debye
        Dipole field          0.0006 Ry au
 
        Potential amp.       -0.0412 Ry
        Total length         35.2972 bohr
 

     total cpu time spent up to now is       73.5 secs

     total energy              =   -1205.83009444 Ry
     Harris-Foulkes estimate   =   -1205.83015585 Ry
     estimated scf accuracy    <       0.00076374 Ry

     iteration #  6     ecut=    29.40 Ry     beta=0.10
     Davidson diagonalization with overlap
     ethr =  9.09E-07,  avg # of iterations =  2.5

     negative rho (up, down):  2.629E-03 0.000E+00
 
     Adding external electric field

     Computed dipole along edir(3) : 
        Dipole                0.1063 Ry au,          0.2701 Debye
        Dipole field          0.0007 Ry au
 
        Potential amp.       -0.0503 Ry
        Total length         35.2972 bohr
 

     total cpu time spent up to now is       75.0 secs

     total energy              =   -1205.83011447 Ry
     Harris-Foulkes estimate   =   -1205.83018361 Ry
     estimated scf accuracy    <       0.00092858 Ry

     iteration #  7     ecut=    29.40 Ry     beta=0.10
     Davidson diagonalization with overlap
     ethr =  9.09E-07,  avg # of iterations =  4.3

     negative rho (up, down):  2.609E-03 0.000E+00
 
     Adding external electric field

     Computed dipole along edir(3) : 
        Dipole                0.1081 Ry au,          0.2748 Debye
        Dipole field          0.0007 Ry au
 
        Potential amp.       -0.0512 Ry
        Total length         35.2972 bohr
 

     total cpu time spent up to now is       76.9 secs

     total energy              =   -1205.83016090 Ry
     Harris-Foulkes estimate   =   -1205.83016219 Ry
     estimated scf accuracy    <       0.00005677 Ry

     iteration #  8     ecut=    29.40 Ry     beta=0.10
     Davidson diagonalization with overlap
     ethr =  6.76E-08,  avg # of iterations =  2.0

     negative rho (up, down):  2.561E-03 0.000E+00
 
     Adding external electric field

     Computed dipole along edir(3) : 
        Dipole                0.1084 Ry au,          0.2756 Debye
        Dipole field          0.0007 Ry au
 
        Potential amp.       -0.0514 Ry
        Total length         35.2972 bohr
 

     total cpu time spent up to now is       78.3 secs

     total energy              =   -1205.83016943 Ry
     Harris-Foulkes estimate   =   -1205.83016588 Ry
     estimated scf accuracy    <       0.00000864 Ry

     iteration #  9     ecut=    29.40 Ry     beta=0.10
     Davidson diagonalization with overlap
     ethr =  1.03E-08,  avg # of iterations =  1.0

     negative rho (up, down):  2.527E-03 0.000E+00
 
     Adding external electric field

     Computed dipole along edir(3) : 
        Dipole                0.1079 Ry au,          0.2743 Debye
        Dipole field          0.0007 Ry au
 
        Potential amp.       -0.0511 Ry
        Total length         35.2972 bohr
 

     total cpu time spent up to now is       79.6 secs

     total energy              =   -1205.83017169 Ry
     Harris-Foulkes estimate   =   -1205.83017035 Ry
     estimated scf accuracy    <       0.00000427 Ry

     iteration # 10     ecut=    29.40 Ry     beta=0.10
     Davidson diagonalization with overlap
     ethr =  5.08E-09,  avg # of iterations =  2.0

     negative rho (up, down):  2.333E-03 0.000E+00
 
     Adding external electric field

     Computed dipole along edir(3) : 
        Dipole                0.1047 Ry au,          0.2660 Debye
        Dipole field          0.0007 Ry au
 
        Potential amp.       -0.0496 Ry
        Total length         35.2972 bohr
 

     total cpu time spent up to now is       81.2 secs

     End of self-consistent calculation

          k = 0.0000 0.0000 0.0000 (  5071 PWs)   bands (ev):

   -90.6849 -90.4049 -90.3678 -90.3084 -54.2063 -54.1296 -54.0876 -53.9373
   -53.8516 -53.8203 -53.8128 -53.8047 -53.7964 -53.7731 -53.7283 -53.7223
   -14.7214  -6.0080  -5.5296  -4.7435  -4.6720  -4.5024  -4.3355  -3.6354
    -3.3265  -3.1777  -3.1472  -3.0550  -3.0509  -2.8909  -2.7771  -2.2324
    -2.1757  -1.9612  -1.8705  -1.7449  -1.6777  -1.6359  -1.4008  -1.3031
     0.0928   0.4724   1.4100   2.4898   3.2158   4.7658   5.3431   5.8223
     6.3408   6.7044   7.1750   7.9096   8.6937   9.2765   9.6989   9.9375
    10.6982  10.8706  11.2376  11.5792  11.7648  12.2525  12.6019  12.8529
    13.1572  13.5760  13.9401  14.5264  14.8108  15.2432  15.7912  16.3595

          k = 0.0000 0.0998 0.0000 (  5031 PWs)   bands (ev):

   -90.6820 -90.4014 -90.3656 -90.3057 -54.1996 -54.1357 -54.1160 -53.9194
   -53.8856 -53.8505 -53.8310 -53.8126 -53.7938 -53.7794 -53.7587 -53.7226
   -14.2765  -6.2051  -4.9914  -4.2289  -4.0936  -3.9430  -3.8293  -3.6133
    -3.5253  -3.2865  -3.1364  -2.9823  -2.9205  -2.7050  -2.6544  -2.5695
    -2.4668  -2.3550  -2.1744  -2.0808  -1.9399  -1.7206  -1.5814  -1.0274
    -0.5877   1.3011   1.8512   3.3406   4.7153   6.1016   6.4951   7.0082
     7.7027   8.0754   8.1974   8.6825   8.9398   9.4549   9.6992  10.4287
    10.6238  10.8084  11.0530  11.3407  11.8561  12.3044  12.4995  13.0901
    13.4101  13.6812  13.9745  14.2766  14.8131  15.0530  15.5118  15.5707

          k = 0.0000-0.1996 0.0000 (  5048 PWs)   bands (ev):

   -90.6792 -90.3983 -90.3629 -90.3029 -54.1965 -54.1760 -54.1154 -53.9405
   -53.9289 -53.8546 -53.8359 -53.8126 -53.8090 -53.7824 -53.7613 -53.7265
   -13.7310  -6.9700  -4.9518  -4.6058  -4.5364  -4.4342  -4.2610  -4.1151
    -3.8538  -3.4424  -2.9482  -2.9279  -2.7154  -2.2823  -2.0995  -1.8543
    -1.7840  -1.7532  -1.4922  -1.3576  -1.3077  -1.2795  -0.9102  -0.5916
     1.8986   2.2417   2.8494   3.1131   4.6933   5.6980   6.1398   6.3964
     8.0189   8.1684   8.6068   9.9950  10.1403  10.4327  10.6795  10.7657
    11.0106  11.1113  11.3465  11.4050  11.5563  12.0712  12.2571  12.4802
    12.5972  12.6927  13.1371  13.1650  13.4812  13.6417  14.0645  14.3991

          k =-0.0864 0.0499 0.0000 (  5024 PWs)   bands (ev):

   -90.6849 -90.4040 -90.3687 -90.3085 -54.2013 -54.1252 -54.0861 -53.8954
   -53.8584 -53.8450 -53.8171 -53.8109 -53.8024 -53.7782 -53.7281 -53.7205
   -14.7096  -5.8674  -5.2363  -4.3312  -4.1933  -4.0467  -3.9482  -3.5849
    -3.3982  -3.3799  -3.1528  -2.8350  -2.7749  -2.6738  -2.6041  -2.5360
    -2.4445  -2.3762  -2.2930  -2.1557  -2.0994  -1.9609  -1.7505  -1.5969
    -1.2091  -0.0098   1.2562   1.9888   3.7780   5.0983   5.9334   6.3699
     6.6847   6.9287   7.2267   7.9345   8.2214   8.6191   9.1377   9.9878
    10.5868  10.8896  11.2131  11.7921  12.1170  12.7554  13.6875  14.0390
    14.4352  14.4812  15.3168  15.4426  15.8472  16.2654  16.3221  16.8194

          k =-0.0864 0.1497 0.0000 (  5031 PWs)   bands (ev):

   -90.6820 -90.4014 -90.3656 -90.3057 -54.1996 -54.1384 -54.1131 -53.9156
   -53.8889 -53.8559 -53.8263 -53.8123 -53.7938 -53.7794 -53.7588 -53.7226
   -14.2768  -6.2042  -5.0178  -4.2367  -4.0330  -3.8958  -3.8028  -3.6999
    -3.4896  -3.2720  -3.1401  -3.0333  -2.8723  -2.7263  -2.6387  -2.5435
    -2.5099  -2.3500  -2.2109  -2.0981  -2.0018  -1.7102  -1.6007  -1.0241
    -0.5239   1.4273   1.7790   3.3664   4.6410   6.1256   6.4843   6.9460
     7.7182   8.0540   8.1940   8.6668   8.8619   9.4300   9.7241  10.4873
    10.6744  10.8272  11.0521  11.4551  11.8101  12.0753  12.7725  13.0677
    13.5698  13.7573  14.0759  14.4571  14.7841  14.8946  15.4613  15.5566

          k =-0.0864-0.1497 0.0000 (  5038 PWs)   bands (ev):

   -90.6792 -90.3983 -90.3629 -90.3030 -54.1937 -54.1736 -54.1127 -53.9266
   -53.8959 -53.8879 -53.8501 -53.8183 -53.8113 -53.7840 -53.7612 -53.7257
   -13.7380  -6.9718  -4.5920  -4.0944  -3.9565  -3.8825  -3.7351  -3.6871
    -3.6842  -3.3206  -3.1379  -3.0492  -2.9492  -2.8778  -2.7236  -2.6805
    -2.5169  -2.2738  -2.0343  -1.8882  -1.6541  -1.4467  -0.8302  -0.4160
     1.5551   1.7517   3.2991   4.1242   5.4445   7.6202   7.7560   8.0011
     8.0694   8.5613   8.8195   9.1162   9.4940   9.5816   9.8410  10.0016
    10.4201  10.7312  10.8973  11.2421  11.5366  11.7900  12.0845  12.4027
    12.8522  13.3417  13.6695  13.8107  14.1772  14.5446  14.7296  14.8783

     the Fermi energy is     1.6916 ev

!    total energy              =   -1205.83018411 Ry
     Harris-Foulkes estimate   =   -1205.83017689 Ry
     estimated scf accuracy    <       0.00000091 Ry

     The total energy is the sum of the following terms:

     one-electron contribution =   -5982.48922399 Ry
     hartree contribution      =    2988.84366853 Ry
     xc contribution           =    -123.18915758 Ry
     ewald contribution        =    1911.01330660 Ry
     electric field correction =       0.00007351 Ry
     smearing contrib. (-TS)   =      -0.00885119 Ry

     convergence has been achieved in  10 iterations

     Forces acting on atoms (Ry/au):


     negative rho (up, down):  2.333E-03 0.000E+00
     atom    1 type  1   force =    -0.00227665    0.00199597   -0.00914775
     atom    2 type  1   force =     0.00295097   -0.00179061   -0.01442849
     atom    3 type  1   force =     0.00510788   -0.00862874    0.02328095
     atom    4 type  1   force =    -0.00458937    0.01420489   -0.02059033
     atom    5 type  2   force =    -0.00504491    0.03418148   -0.01649024
     atom    6 type  3   force =    -0.00752217   -0.03243885   -0.02140745
     atom    7 type  3   force =    -0.00770214   -0.00022770    0.04926307
     atom    8 type  3   force =     0.01907638   -0.00729643    0.00952024

     Total force =     0.087345     Total SCF correction =     0.006718
 !ASE
     Check: negative starting charge=   -0.002356
     NEW-OLD atomic charge density approx. for the potential
     Check: negative starting charge=   -0.002361

     negative rho (up, down):  2.358E-03 0.000E+00
 
     Adding external electric field

     Computed dipole along edir(3) : 
        Dipole                0.1047 Ry au,          0.2660 Debye
        Dipole field          0.0007 Ry au
 
        Potential amp.       -0.0496 Ry
        Total length         35.2972 bohr
 

     total cpu time spent up to now is       82.3 secs

     per-process dynamical memory:    31.3 Mb

     Self-consistent Calculation

     iteration #  1     ecut=    29.40 Ry     beta=0.10
     Davidson diagonalization with overlap
     ethr =  5.08E-09,  avg # of iterations =  5.7

     negative rho (up, down):  2.355E-03 0.000E+00
 
     Adding external electric field

     Computed dipole along edir(3) : 
        Dipole                0.0575 Ry au,          0.1462 Debye
        Dipole field          0.0004 Ry au
 
        Potential amp.       -0.0273 Ry
        Total length         35.2972 bohr
 

     total cpu time spent up to now is       85.6 secs

     total energy              =   -1205.83181121 Ry
     Harris-Foulkes estimate   =   -1205.83385169 Ry
     estimated scf accuracy    <       0.01290695 Ry

     iteration #  2     ecut=    29.40 Ry     beta=0.10
     Davidson diagonalization with overlap
     ethr =  1.54E-05,  avg # of iterations =  3.3

     negative rho (up, down):  2.352E-03 0.000E+00
 
     Adding external electric field

     Computed dipole along edir(3) : 
        Dipole                0.0846 Ry au,          0.2152 Debye
        Dipole field          0.0006 Ry au
 
        Potential amp.       -0.0401 Ry
        Total length         35.2972 bohr
 

     total cpu time spent up to now is       87.2 secs

     total energy              =   -1205.83224550 Ry
     Harris-Foulkes estimate   =   -1205.83293162 Ry
     estimated scf accuracy    <       0.00770575 Ry

     iteration #  3     ecut=    29.40 Ry     beta=0.10
     Davidson diagonalization with overlap
     ethr =  9.17E-06,  avg # of iterations =  2.8

     negative rho (up, down):  2.356E-03 0.000E+00
 
     Adding external electric field

     Computed dipole along edir(3) : 
        Dipole                0.0826 Ry au,          0.2099 Debye
        Dipole field          0.0006 Ry au
 
        Potential amp.       -0.0391 Ry
        Total length         35.2972 bohr
 

     total cpu time spent up to now is       88.8 secs

     total energy              =   -1205.83199599 Ry
     Harris-Foulkes estimate   =   -1205.83254732 Ry
     estimated scf accuracy    <       0.00278845 Ry

     iteration #  4     ecut=    29.40 Ry     beta=0.10
     Davidson diagonalization with overlap
     ethr =  3.32E-06,  avg # of iterations =  2.2

     negative rho (up, down):  2.392E-03 0.000E+00
 
     Adding external electric field

     Computed dipole along edir(3) : 
        Dipole                0.0892 Ry au,          0.2266 Debye
        Dipole field          0.0006 Ry au
 
        Potential amp.       -0.0422 Ry
        Total length         35.2972 bohr
 

     total cpu time spent up to now is       90.3 secs

     total energy              =   -1205.83188514 Ry
     Harris-Foulkes estimate   =   -1205.83211867 Ry
     estimated scf accuracy    <       0.00109810 Ry

     iteration #  5     ecut=    29.40 Ry     beta=0.10
     Davidson diagonalization with overlap
     ethr =  1.31E-06,  avg # of iterations =  2.8

     negative rho (up, down):  2.411E-03 0.000E+00
 
     Adding external electric field

     Computed dipole along edir(3) : 
        Dipole                0.0887 Ry au,          0.2254 Debye
        Dipole field          0.0006 Ry au
 
        Potential amp.       -0.0420 Ry
        Total length         35.2972 bohr
 

     total cpu time spent up to now is       91.9 secs

     total energy              =   -1205.83198317 Ry
     Harris-Foulkes estimate   =   -1205.83199465 Ry
     estimated scf accuracy    <       0.00022641 Ry

     iteration #  6     ecut=    29.40 Ry     beta=0.10
     Davidson diagonalization with overlap
     ethr =  2.70E-07,  avg # of iterations =  2.0

     negative rho (up, down):  2.410E-03 0.000E+00
 
     Adding external electric field

     Computed dipole along edir(3) : 
        Dipole                0.0958 Ry au,          0.2435 Debye
        Dipole field          0.0006 Ry au
 
        Potential amp.       -0.0454 Ry
        Total length         35.2972 bohr
 

     total cpu time spent up to now is       93.3 secs

     total energy              =   -1205.83199047 Ry
     Harris-Foulkes estimate   =   -1205.83201375 Ry
     estimated scf accuracy    <       0.00028130 Ry

     iteration #  7     ecut=    29.40 Ry     beta=0.10
     Davidson diagonalization with overlap
     ethr =  2.70E-07,  avg # of iterations =  2.0

     negative rho (up, down):  2.413E-03 0.000E+00
 
     Adding external electric field

     Computed dipole along edir(3) : 
        Dipole                0.0970 Ry au,          0.2466 Debye
        Dipole field          0.0007 Ry au
 
        Potential amp.       -0.0460 Ry
        Total length         35.2972 bohr
 

     total cpu time spent up to now is       94.8 secs

     total energy              =   -1205.83201549 Ry
     Harris-Foulkes estimate   =   -1205.83201176 Ry
     estimated scf accuracy    <       0.00002431 Ry

     iteration #  8     ecut=    29.40 Ry     beta=0.10
     Davidson diagonalization with overlap
     ethr =  2.89E-08,  avg # of iterations =  2.0

     negative rho (up, down):  2.401E-03 0.000E+00
 
     Adding external electric field

     Computed dipole along edir(3) : 
        Dipole                0.0968 Ry au,          0.2461 Debye
        Dipole field          0.0006 Ry au
 
        Potential amp.       -0.0459 Ry
        Total length         35.2972 bohr
 

     total cpu time spent up to now is       96.2 secs

     total energy              =   -1205.83201812 Ry
     Harris-Foulkes estimate   =   -1205.83201772 Ry
     estimated scf accuracy    <       0.00000830 Ry

     iteration #  9     ecut=    29.40 Ry     beta=0.10
     Davidson diagonalization with overlap
     ethr =  9.89E-09,  avg # of iterations =  1.0

     negative rho (up, down):  2.393E-03 0.000E+00
 
     Adding external electric field

     Computed dipole along edir(3) : 
        Dipole                0.0961 Ry au,          0.2443 Debye
        Dipole field          0.0006 Ry au
 
        Potential amp.       -0.0455 Ry
        Total length         35.2972 bohr
 

     total cpu time spent up to now is       97.5 secs

     total energy              =   -1205.83201839 Ry
     Harris-Foulkes estimate   =   -1205.83201907 Ry
     estimated scf accuracy    <       0.00000469 Ry

     iteration # 10     ecut=    29.40 Ry     beta=0.10
     Davidson diagonalization with overlap
     ethr =  5.58E-09,  avg # of iterations =  1.7

     negative rho (up, down):  2.350E-03 0.000E+00
 
     Adding external electric field

     Computed dipole along edir(3) : 
        Dipole                0.0942 Ry au,          0.2394 Debye
        Dipole field          0.0006 Ry au
 
        Potential amp.       -0.0446 Ry
        Total length         35.2972 bohr
 

     total cpu time spent up to now is       98.9 secs

     End of self-consistent calculation

          k = 0.0000 0.0000 0.0000 (  5071 PWs)   bands (ev):

   -90.7327 -90.4430 -90.4149 -90.3402 -54.2648 -54.1651 -54.1333 -53.9783
   -53.8919 -53.8617 -53.8535 -53.8507 -53.8351 -53.8102 -53.7621 -53.7555
   -14.8773  -6.0101  -5.4183  -4.7982  -4.7057  -4.5422  -4.3718  -3.6700
    -3.3398  -3.2186  -3.1867  -3.0954  -3.0933  -2.9373  -2.8118  -2.2684
    -2.2140  -1.9938  -1.9022  -1.7854  -1.7160  -1.6744  -1.4397  -1.3447
     0.1404   0.3786   1.4068   2.4674   3.2043   4.8224   5.3261   5.8648
     6.3392   6.6687   7.0978   7.9944   8.6710   9.1785   9.6088  10.1285
    10.7632  10.8383  11.2913  11.6084  11.7624  12.2648  12.6193  12.8735
    13.2020  13.5264  13.9385  14.5486  14.8271  15.2712  15.8624  16.3745

          k = 0.0000 0.0998 0.0000 (  5031 PWs)   bands (ev):

   -90.7298 -90.4392 -90.4129 -90.3375 -54.2582 -54.1773 -54.1556 -53.9603
   -53.9242 -53.8980 -53.8749 -53.8491 -53.8336 -53.8152 -53.7955 -53.7548
   -14.4461  -5.9863  -5.0753  -4.2690  -4.1190  -3.9823  -3.8652  -3.6550
    -3.5710  -3.3118  -3.1727  -3.0228  -2.9615  -2.7446  -2.6929  -2.6170
    -2.5067  -2.3941  -2.2133  -2.1181  -1.9780  -1.7593  -1.6189  -1.1156
    -0.6398   1.2507   1.7894   3.3336   4.6989   6.2117   6.4944   7.0599
     7.7772   8.0735   8.1634   8.6725   9.0239   9.5063   9.7606  10.5013
    10.5989  10.7911  11.0848  11.2657  11.8563  12.3306  12.5117  13.3053
    13.4450  13.7025  13.9952  14.3275  14.7668  15.0636  15.5146  15.5789

          k = 0.0000-0.1996 0.0000 (  5048 PWs)   bands (ev):

   -90.7269 -90.4361 -90.4103 -90.3347 -54.2552 -54.2195 -54.1530 -53.9807
   -53.9723 -53.8966 -53.8812 -53.8490 -53.8454 -53.8157 -53.8060 -53.7568
   -13.9232  -6.7161  -5.0424  -4.6455  -4.5746  -4.4692  -4.3020  -4.1570
    -3.8983  -3.4855  -2.9971  -2.9882  -2.7516  -2.3158  -2.1377  -1.8957
    -1.8217  -1.7880  -1.5343  -1.3971  -1.3531  -1.3168  -1.0736  -0.6047
     1.8477   2.1896   2.8037   3.0689   4.6510   5.7831   6.1005   6.3532
     8.1380   8.1788   9.1134  10.0066  10.2120  10.4032  10.6714  10.7733
    11.0042  11.1428  11.3901  11.4400  11.5910  12.1372  12.2761  12.4410
    12.6128  12.7056  13.1555  13.1799  13.5448  13.6426  14.1115  14.3794

          k =-0.0864 0.0499 0.0000 (  5024 PWs)   bands (ev):

   -90.7326 -90.4417 -90.4161 -90.3403 -54.2600 -54.1609 -54.1318 -53.9330
   -53.9051 -53.8838 -53.8589 -53.8530 -53.8420 -53.8161 -53.7620 -53.7538
   -14.8671  -5.6953  -5.3024  -4.3686  -4.2389  -4.0872  -3.9828  -3.6229
    -3.4397  -3.4001  -3.1901  -2.8606  -2.8052  -2.7137  -2.6483  -2.5745
    -2.4874  -2.4151  -2.3299  -2.1969  -2.1301  -1.9953  -1.7899  -1.6359
    -1.2533  -0.0144   1.2240   1.9007   3.7773   5.1308   6.0269   6.4241
     6.6894   6.9375   7.3100   7.9733   8.2009   8.5632   9.2376   9.7937
    10.6053  10.8751  11.2525  11.7429  12.0834  12.8887  13.6803  14.0493
    14.4550  14.4983  15.2751  15.7931  15.9582  16.2501  16.2797  16.7695

          k =-0.0864 0.1497 0.0000 (  5031 PWs)   bands (ev):

   -90.7298 -90.4392 -90.4129 -90.3375 -54.2583 -54.1789 -54.1538 -53.9562
   -53.9277 -53.9033 -53.8703 -53.8490 -53.8337 -53.8150 -53.7955 -53.7548
   -14.4463  -5.9874  -5.1051  -4.2690  -4.0714  -3.9356  -3.8345  -3.7330
    -3.5263  -3.3068  -3.1782  -3.0702  -2.9094  -2.7685  -2.6766  -2.5925
    -2.5490  -2.3894  -2.2470  -2.1369  -2.0380  -1.7505  -1.6391  -1.0862
    -0.6131   1.3767   1.7220   3.3569   4.6304   6.2164   6.4894   7.0074
     7.7661   8.0409   8.1711   8.6824   8.9844   9.4316   9.7816  10.5149
    10.7083  10.8550  11.0619  11.3839  11.8653  12.1747  12.7033  13.1823
    13.6076  13.7962  14.0873  14.4332  14.7729  14.9260  15.4927  15.5740

          k =-0.0864-0.1497 0.0000 (  5038 PWs)   bands (ev):

   -90.7269 -90.4361 -90.4104 -90.3347 -54.2525 -54.2172 -54.1503 -53.9654
   -53.9438 -53.9255 -53.8968 -53.8543 -53.8473 -53.8174 -53.8062 -53.7561
   -13.9291  -6.7206  -4.7076  -4.1260  -3.9964  -3.9199  -3.7765  -3.7299
    -3.7258  -3.3722  -3.1813  -3.0760  -2.9855  -2.9175  -2.7684  -2.7237
    -2.5625  -2.3141  -2.0715  -1.9247  -1.6999  -1.4827  -0.9996  -0.4276
     1.5263   1.7015   3.2844   4.0892   5.4243   7.7412   7.9239   8.0108
     8.1659   8.6313   8.8459   9.1267   9.4816   9.6355   9.8116  10.0646
    10.4645  10.7210  10.8910  11.2204  11.5612  11.8259  11.9986  12.4325
    12.9087  13.3100  13.6888  13.9475  14.1586  14.5782  14.6850  14.8959

     the Fermi energy is     1.6405 ev

!    total energy              =   -1205.83202185 Ry
     Harris-Foulkes estimate   =   -1205.83202120 Ry
     estimated scf accuracy    <       0.00000020 Ry

     The total energy is the sum of the following terms:

     one-electron contribution =   -5970.93584913 Ry
     hartree contribution      =    2982.99648285 Ry
     xc contribution           =    -123.22907471 Ry
     ewald contribution        =    1905.34569934 Ry
     electric field correction =       0.00005953 Ry
     smearing contrib. (-TS)   =      -0.00933974 Ry

     convergence has been achieved in  10 iterations

     Forces acting on atoms (Ry/au):


     negative rho (up, down):  2.350E-03 0.000E+00
     atom    1 type  1   force =    -0.00225397    0.00196061   -0.00922006
     atom    2 type  1   force =     0.00298779   -0.00182004   -0.01544104
     atom    3 type  1   force =     0.00509979   -0.00797314    0.02283471
     atom    4 type  1   force =    -0.00055722    0.00920576   -0.01278452
     atom    5 type  2   force =     0.01447223   -0.09799031   -0.12804269
     atom    6 type  3   force =    -0.04270009    0.05552522    0.10216738
     atom    7 type  3   force =     0.00561090    0.04612864    0.02312076
     atom    8 type  3   force =     0.01734058   -0.00503674    0.01736546

     Total force =     0.214655     Total SCF correction =     0.001458
 !ASE
     Check: negative starting charge=   -0.002361
     NEW-OLD atomic charge density approx. for the potential
     Check: negative starting charge=   -0.002359

     negative rho (up, down):  2.350E-03 0.000E+00
 
     Adding external electric field

     Computed dipole along edir(3) : 
        Dipole                0.0942 Ry au,          0.2394 Debye
        Dipole field          0.0006 Ry au
 
        Potential amp.       -0.0446 Ry
        Total length         35.2972 bohr
 

     total cpu time spent up to now is      100.1 secs

     per-process dynamical memory:    31.3 Mb

     Self-consistent Calculation

     iteration #  1     ecut=    29.40 Ry     beta=0.10
     Davidson diagonalization with overlap
     ethr =  5.58E-09,  avg # of iterations =  5.0

     negative rho (up, down):  2.349E-03 0.000E+00
 
     Adding external electric field

     Computed dipole along edir(3) : 
        Dipole                0.1219 Ry au,          0.3099 Debye
        Dipole field          0.0008 Ry au
 
        Potential amp.       -0.0577 Ry
        Total length         35.2972 bohr
 

     total cpu time spent up to now is      103.6 secs

     total energy              =   -1205.83510303 Ry
     Harris-Foulkes estimate   =   -1205.83563831 Ry
     estimated scf accuracy    <       0.00357627 Ry

     iteration #  2     ecut=    29.40 Ry     beta=0.10
     Davidson diagonalization with overlap
     ethr =  4.26E-06,  avg # of iterations =  3.3

     negative rho (up, down):  2.348E-03 0.000E+00
 
     Adding external electric field

     Computed dipole along edir(3) : 
        Dipole                0.1066 Ry au,          0.2710 Debye
        Dipole field          0.0007 Ry au
 
        Potential amp.       -0.0505 Ry
        Total length         35.2972 bohr
 

     total cpu time spent up to now is      105.2 secs

     total energy              =   -1205.83527840 Ry
     Harris-Foulkes estimate   =   -1205.83552039 Ry
     estimated scf accuracy    <       0.00233607 Ry

     iteration #  3     ecut=    29.40 Ry     beta=0.10
     Davidson diagonalization with overlap
     ethr =  2.78E-06,  avg # of iterations =  3.0

     negative rho (up, down):  2.346E-03 0.000E+00
 
     Adding external electric field

     Computed dipole along edir(3) : 
        Dipole                0.1065 Ry au,          0.2706 Debye
        Dipole field          0.0007 Ry au
 
        Potential amp.       -0.0504 Ry
        Total length         35.2972 bohr
 

     total cpu time spent up to now is      106.9 secs

     total energy              =   -1205.83525677 Ry
     Harris-Foulkes estimate   =   -1205.83537230 Ry
     estimated scf accuracy    <       0.00060312 Ry

     iteration #  4     ecut=    29.40 Ry     beta=0.10
     Davidson diagonalization with overlap
     ethr =  7.18E-07,  avg # of iterations =  2.0

     negative rho (up, down):  2.349E-03 0.000E+00
 
     Adding external electric field

     Computed dipole along edir(3) : 
        Dipole                0.1060 Ry au,          0.2693 Debye
        Dipole field          0.0007 Ry au
 
        Potential amp.       -0.0502 Ry
        Total length         35.2972 bohr
 

     total cpu time spent up to now is      108.3 secs

     total energy              =   -1205.83521696 Ry
     Harris-Foulkes estimate   =   -1205.83527983 Ry
     estimated scf accuracy    <       0.00025143 Ry

     iteration #  5     ecut=    29.40 Ry     beta=0.10
     Davidson diagonalization with overlap
     ethr =  2.99E-07,  avg # of iterations =  2.0

     negative rho (up, down):  2.353E-03 0.000E+00
 
     Adding external electric field

     Computed dipole along edir(3) : 
        Dipole                0.1011 Ry au,          0.2569 Debye
        Dipole field          0.0007 Ry au
 
        Potential amp.       -0.0479 Ry
        Total length         35.2972 bohr
 

     total cpu time spent up to now is      109.8 secs

     total energy              =   -1205.83524005 Ry
     Harris-Foulkes estimate   =   -1205.83524893 Ry
     estimated scf accuracy    <       0.00004511 Ry

     iteration #  6     ecut=    29.40 Ry     beta=0.10
     Davidson diagonalization with overlap
     ethr =  5.37E-08,  avg # of iterations =  2.0

     negative rho (up, down):  2.353E-03 0.000E+00
 
     Adding external electric field

[...]

     Computed dipole along edir(3) : 
        Dipole                0.0002 Ry au,          0.0006 Debye
        Dipole field          0.0000 Ry au
 
        Potential amp.       -0.0001 Ry
        Total length         35.2972 bohr
 

     total cpu time spent up to now is      700.6 secs

     total energy              =   -1205.86477509 Ry
     Harris-Foulkes estimate   =   -1205.86477529 Ry
     estimated scf accuracy    <       0.00000191 Ry

     iteration #  4     ecut=    29.40 Ry     beta=0.10
     Davidson diagonalization with overlap
     ethr =  2.28E-09,  avg # of iterations =  1.0

     negative rho (up, down):  2.423E-03 0.000E+00
 
     Adding external electric field

     Computed dipole along edir(3) : 
        Dipole                0.0003 Ry au,          0.0007 Debye
        Dipole field          0.0000 Ry au
 
        Potential amp.       -0.0001 Ry
        Total length         35.2972 bohr
 

     total cpu time spent up to now is      701.8 secs

     End of self-consistent calculation

          k = 0.0000 0.0000 0.0000 (  5071 PWs)   bands (ev):

   -90.6888 -90.5700 -90.5407 -90.5240 -54.2092 -54.1358 -54.0925 -54.0834
   -54.0355 -54.0117 -53.9992 -53.9805 -53.9654 -53.9488 -53.9463 -53.9266
   -14.7770  -6.3867  -5.1781  -4.8060  -4.7087  -4.5590  -4.3803  -3.6858
    -3.4243  -3.3238  -3.3103  -3.2028  -3.1973  -2.9782  -2.9358  -2.3559
    -2.3359  -2.2268  -1.9958  -1.9449  -1.8672  -1.8172  -1.5549  -1.4524
     0.0082   0.3265   1.7370   2.0344   2.8071   5.0008   5.2869   5.6001
     6.1928   6.7110   7.1161   8.5528   8.7426   9.5963   9.9256  10.2122
    10.6608  10.8931  11.2945  11.6096  11.7881  12.4587  12.6141  12.8802
    13.1261  13.3316  13.9586  14.2643  15.1567  15.3653  15.6037  16.3884

          k = 0.0000 0.0998 0.0000 (  5031 PWs)   bands (ev):

   -90.6857 -90.5673 -90.5364 -90.5227 -54.2015 -54.1320 -54.1204 -54.0647
   -54.0524 -54.0410 -54.0147 -54.0075 -53.9911 -53.9738 -53.9473 -53.9234
   -14.3556  -5.7755  -5.2349  -4.3255  -4.1627  -4.0656  -3.9460  -3.7846
    -3.6006  -3.4766  -3.3263  -3.0973  -2.9985  -2.8361  -2.8155  -2.7016
    -2.6231  -2.5118  -2.3494  -2.2619  -2.1505  -1.8748  -1.7624  -1.1227
    -0.7734   1.1245   1.6970   3.2671   4.6865   6.3848   6.6362   7.0355
     7.7731   7.9762   8.0520   8.7791   9.1022   9.6984   9.8487  10.3018
    10.5196  10.9849  11.1644  11.3630  11.7233  12.1816  12.3677  13.0094
    13.4561  13.8084  14.1301  14.4250  14.7437  15.1178  15.5390  15.6793

          k = 0.0000-0.1996 0.0000 (  5048 PWs)   bands (ev):

   -90.6828 -90.5643 -90.5331 -90.5205 -54.2098 -54.1723 -54.1241 -54.0827
   -54.0733 -54.0633 -54.0371 -53.9981 -53.9901 -53.9809 -53.9520 -53.9217
   -13.8491  -6.2819  -5.6356  -4.6892  -4.6391  -4.4887  -4.3902  -4.2394
    -3.7794  -3.5205  -3.0807  -2.9446  -2.8466  -2.6619  -2.2913  -1.9939
    -1.9668  -1.9575  -1.5678  -1.5455  -1.4534  -1.4483  -1.2165  -0.6531
     1.4887   2.0865   2.6422   2.9101   5.0993   5.5158   5.9986   6.6921
     8.1764   8.7294   9.1033   9.7126   9.9947  10.4746  10.5665  10.8217
    11.2119  11.2355  11.3468  11.5191  11.7444  12.0668  12.2600  12.4521
    12.5504  12.7371  13.2213  13.3042  13.3546  13.5768  13.8854  14.4741

          k =-0.0864 0.0499 0.0000 (  5024 PWs)   bands (ev):

   -90.6886 -90.5703 -90.5386 -90.5261 -54.1936 -54.1222 -54.0875 -54.0592
   -54.0368 -54.0198 -54.0152 -53.9998 -53.9698 -53.9579 -53.9453 -53.9258
   -14.7669  -5.9336  -4.9926  -4.3763  -4.2212  -4.1753  -4.1522  -3.7493
    -3.6083  -3.3973  -3.3585  -2.9339  -2.8530  -2.8103  -2.7551  -2.6824
    -2.5744  -2.5602  -2.4817  -2.2905  -2.2487  -2.1226  -1.8879  -1.8225
    -1.1322  -0.4452   0.9316   1.8978   3.5152   5.3431   6.0400   6.7112
     6.7746   6.9436   7.4737   8.2360   8.3028   8.7468   9.4460  10.2115
    10.5447  10.8742  11.3933  11.6079  11.9730  12.4689  13.3658  13.9637
    14.3095  14.6384  14.7243  15.4919  15.7953  16.0816  16.8376  16.9664

          k =-0.0864 0.1497 0.0000 (  5031 PWs)   bands (ev):

   -90.6857 -90.5673 -90.5364 -90.5227 -54.1958 -54.1447 -54.1146 -54.0686
   -54.0505 -54.0337 -54.0183 -54.0099 -53.9909 -53.9722 -53.9472 -53.9235
   -14.3559  -5.7330  -5.1725  -4.3386  -4.1711  -4.0990  -3.9250  -3.8419
    -3.6780  -3.4711  -3.2842  -3.1605  -2.9651  -2.8579  -2.8070  -2.7224
    -2.6276  -2.5081  -2.3279  -2.2511  -2.2080  -1.8616  -1.7783  -1.1562
    -0.6670   1.1844   1.6879   3.3047   4.6960   6.3269   6.6490   6.9441
     7.8380   7.9353   8.0480   8.7203   9.1222   9.6130   9.9175  10.4126
    10.5630  10.9633  11.1772  11.4959  11.7711  12.2021  12.4695  13.1656
    13.5612  13.7608  14.0935  14.2634  14.5474  14.9832  15.5704  15.6512

          k =-0.0864-0.1497 0.0000 (  5038 PWs)   bands (ev):

   -90.6828 -90.5644 -90.5332 -90.5205 -54.2013 -54.1590 -54.1126 -54.0973
   -54.0505 -54.0494 -54.0473 -54.0226 -54.0115 -53.9828 -53.9511 -53.9211
   -13.8547  -6.2543  -5.2835  -4.1357  -4.0751  -3.9990  -3.9213  -3.8663
    -3.6986  -3.3644  -3.2698  -3.2000  -3.1419  -3.0232  -2.8464  -2.8183
    -2.6765  -2.2846  -2.2667  -2.0916  -1.8558  -1.6645  -1.0477  -0.4471
     1.4064   1.4938   3.3183   3.8933   6.1685   7.3621   7.8514   7.9356
     8.1902   8.4012   8.9562   9.1252   9.4719   9.6327   9.8927  10.1108
    10.4381  10.6940  10.9552  11.2183  11.4223  11.6418  11.8723  12.4834
    13.0241  13.0953  13.4098  13.8348  14.3082  14.4305  14.6733  14.8075

     the Fermi energy is     1.5524 ev

!    total energy              =   -1205.86477497 Ry
     Harris-Foulkes estimate   =   -1205.86477514 Ry
     estimated scf accuracy    <       0.00000077 Ry

     The total energy is the sum of the following terms:

     one-electron contribution =   -5976.93075735 Ry
     hartree contribution      =    2985.86753270 Ry
     xc contribution           =    -123.23777817 Ry
     ewald contribution        =    1908.44499578 Ry
     electric field correction =       0.00000000 Ry
     smearing contrib. (-TS)   =      -0.00876792 Ry

     convergence has been achieved in   4 iterations

     Forces acting on atoms (Ry/au):


     negative rho (up, down):  2.423E-03 0.000E+00
     atom    1 type  1   force =    -0.00160472    0.00102713   -0.00155782
     atom    2 type  1   force =     0.00110802   -0.00026038   -0.01982187
     atom    3 type  1   force =    -0.01707152    0.00433526    0.00843575
     atom    4 type  1   force =     0.01745241   -0.00511901    0.01328073
     atom    5 type  2   force =    -0.00733435    0.00269799   -0.00860513
     atom    6 type  3   force =    -0.00033764    0.00036691    0.00023146
     atom    7 type  3   force =     0.00001858   -0.00002310    0.00000030
     atom    8 type  3   force =     0.00776922   -0.00302481    0.00803658

     Total force =     0.039476     Total SCF correction =     0.002277
 !ASE
     Check: negative starting charge=   -0.002387
     NEW-OLD atomic charge density approx. for the potential
     Check: negative starting charge=   -0.002388

     negative rho (up, down):  2.426E-03 0.000E+00
 
     Adding external electric field

     Computed dipole along edir(3) : 
        Dipole                0.0003 Ry au,          0.0007 Debye
        Dipole field          0.0000 Ry au
 
        Potential amp.       -0.0001 Ry
        Total length         35.2972 bohr
 

     total cpu time spent up to now is      703.0 secs

     per-process dynamical memory:    31.3 Mb

     Self-consistent Calculation

     iteration #  1     ecut=    29.40 Ry     beta=0.10
     Davidson diagonalization with overlap
     ethr =  2.28E-09,  avg # of iterations =  4.0

     negative rho (up, down):  2.426E-03 0.000E+00
 
     Adding external electric field

     Computed dipole along edir(3) : 
        Dipole                0.0020 Ry au,          0.0051 Debye
        Dipole field          0.0000 Ry au
 
        Potential amp.       -0.0010 Ry
        Total length         35.2972 bohr
 

     total cpu time spent up to now is      705.6 secs

     total energy              =   -1205.86477653 Ry
     Harris-Foulkes estimate   =   -1205.86477925 Ry
     estimated scf accuracy    <       0.00002206 Ry

     iteration #  2     ecut=    29.40 Ry     beta=0.10
     Davidson diagonalization with overlap
     ethr =  2.63E-08,  avg # of iterations =  1.0

     negative rho (up, down):  2.426E-03 0.000E+00
 
     Adding external electric field

     Computed dipole along edir(3) : 
        Dipole                0.0009 Ry au,          0.0023 Debye
        Dipole field          0.0000 Ry au
 
        Potential amp.       -0.0004 Ry
        Total length         35.2972 bohr
 

     total cpu time spent up to now is      706.9 secs

     total energy              =   -1205.86477659 Ry
     Harris-Foulkes estimate   =   -1205.86477825 Ry
     estimated scf accuracy    <       0.00002312 Ry

     iteration #  3     ecut=    29.40 Ry     beta=0.10
     Davidson diagonalization with overlap
     ethr =  2.63E-08,  avg # of iterations =  1.0

     negative rho (up, down):  2.425E-03 0.000E+00
 
     Adding external electric field

     Computed dipole along edir(3) : 
        Dipole                0.0014 Ry au,          0.0036 Debye
        Dipole field          0.0000 Ry au
 
        Potential amp.       -0.0007 Ry
        Total length         35.2972 bohr
 

     total cpu time spent up to now is      708.2 secs

     total energy              =   -1205.86477573 Ry
     Harris-Foulkes estimate   =   -1205.86477734 Ry
     estimated scf accuracy    <       0.00000841 Ry

     iteration #  4     ecut=    29.40 Ry     beta=0.10
     Davidson diagonalization with overlap
     ethr =  1.00E-08,  avg # of iterations =  2.0

     negative rho (up, down):  2.424E-03 0.000E+00
 
     Adding external electric field

     Computed dipole along edir(3) : 
        Dipole                0.0015 Ry au,          0.0039 Debye
        Dipole field          0.0000 Ry au
 
        Potential amp.       -0.0007 Ry
        Total length         35.2972 bohr
 

     total cpu time spent up to now is      709.6 secs

     total energy              =   -1205.86477583 Ry
     Harris-Foulkes estimate   =   -1205.86477614 Ry
     estimated scf accuracy    <       0.00000246 Ry

     iteration #  5     ecut=    29.40 Ry     beta=0.10
     Davidson diagonalization with overlap
     ethr =  2.92E-09,  avg # of iterations =  2.0

     negative rho (up, down):  2.423E-03 0.000E+00
 
     Adding external electric field

     Computed dipole along edir(3) : 
        Dipole                0.0001 Ry au,          0.0003 Debye
        Dipole field          0.0000 Ry au
 
        Potential amp.       -0.0001 Ry
        Total length         35.2972 bohr
 

     total cpu time spent up to now is      711.1 secs

     End of self-consistent calculation

          k = 0.0000 0.0000 0.0000 (  5071 PWs)   bands (ev):

   -90.6837 -90.5683 -90.5372 -90.5206 -54.2044 -54.1311 -54.0877 -54.0796
   -54.0334 -54.0092 -53.9966 -53.9771 -53.9620 -53.9453 -53.9431 -53.9233
   -14.7769  -6.3852  -5.1783  -4.8041  -4.7052  -4.5556  -4.3780  -3.6822
    -3.4221  -3.3200  -3.3066  -3.1992  -3.1939  -2.9753  -2.9323  -2.3525
    -2.3327  -2.2231  -1.9924  -1.9413  -1.8641  -1.8139  -1.5512  -1.4489
     0.0104   0.3323   1.7389   2.0391   2.8108   5.0000   5.2891   5.6042
     6.1954   6.7154   7.1182   8.5539   8.7464   9.5983   9.9270  10.2131
    10.6642  10.8951  11.2937  11.6064  11.7910  12.4576  12.6124  12.8814
    13.1272  13.3347  13.9556  14.2649  15.1573  15.3651  15.6009  16.3913

          k = 0.0000 0.0998 0.0000 (  5031 PWs)   bands (ev):

   -90.6806 -90.5655 -90.5329 -90.5193 -54.1966 -54.1267 -54.1156 -54.0615
   -54.0501 -54.0387 -54.0115 -54.0042 -53.9884 -53.9704 -53.9440 -53.9201
   -14.3554  -5.7778  -5.2339  -4.3225  -4.1596  -4.0621  -3.9435  -3.7805
    -3.5971  -3.4745  -3.3226  -3.0941  -2.9954  -2.8328  -2.8118  -2.6982
    -2.6202  -2.5082  -2.3459  -2.2584  -2.1469  -1.8716  -1.7590  -1.1174
    -0.7693   1.1289   1.7025   3.2710   4.6922   6.3846   6.6377   7.0373
     7.7747   7.9785   8.0529   8.7824   9.1035   9.6985   9.8492  10.3019
    10.5205  10.9854  11.1647  11.3644  11.7284  12.1851  12.3686  13.0107
    13.4571  13.8102  14.1306  14.4275  14.7469  15.1195  15.5394  15.6784

          k = 0.0000-0.1996 0.0000 (  5048 PWs)   bands (ev):

   -90.6776 -90.5626 -90.5296 -90.5171 -54.2047 -54.1675 -54.1197 -54.0797
   -54.0699 -54.0598 -54.0348 -53.9947 -53.9876 -53.9779 -53.9484 -53.9183
   -13.8489  -6.2855  -5.6329  -4.6859  -4.6356  -4.4852  -4.3872  -4.2356
    -3.7782  -3.5170  -3.0787  -2.9408  -2.8458  -2.6583  -2.2872  -1.9910
    -1.9629  -1.9539  -1.5634  -1.5423  -1.4500  -1.4446  -1.2122  -0.6454
     1.4914   2.0906   2.6459   2.9143   5.1041   5.5177   6.0021   6.6969
     8.1788   8.7337   9.1077   9.7190   9.9974  10.4738  10.5687  10.8243
    11.2093  11.2337  11.3468  11.5180  11.7428  12.0656  12.2593  12.4520
    12.5499  12.7371  13.2227  13.3042  13.3571  13.5785  13.8872  14.4739

          k =-0.0864 0.0499 0.0000 (  5024 PWs)   bands (ev):

   -90.6834 -90.5685 -90.5350 -90.5227 -54.1886 -54.1171 -54.0822 -54.0573
   -54.0338 -54.0168 -54.0125 -53.9974 -53.9664 -53.9544 -53.9422 -53.9224
   -14.7668  -5.9344  -4.9926  -4.3731  -4.2180  -4.1715  -4.1502  -3.7455
    -3.6044  -3.3934  -3.3560  -2.9302  -2.8486  -2.8082  -2.7519  -2.6795
    -2.5705  -2.5569  -2.4782  -2.2874  -2.2448  -2.1193  -1.8839  -1.8195
    -1.1290  -0.4418   0.9351   1.9065   3.5193   5.3505   6.0390   6.7123
     6.7720   6.9443   7.4723   8.2357   8.3025   8.7465   9.4477  10.2131
    10.5434  10.8749  11.3932  11.6116  11.9769  12.4718  13.3673  13.9663
    14.3125  14.6395  14.7258  15.4952  15.7967  16.0853  16.8392  16.9680

          k =-0.0864 0.1497 0.0000 (  5031 PWs)   bands (ev):

   -90.6806 -90.5655 -90.5329 -90.5193 -54.1908 -54.1398 -54.1097 -54.0660
   -54.0478 -54.0312 -54.0151 -54.0066 -53.9882 -53.9688 -53.9439 -53.9201
   -14.3558  -5.7359  -5.1711  -4.3352  -4.1678  -4.0954  -3.9224  -3.8377
    -3.6747  -3.4691  -3.2802  -3.1580  -2.9620  -2.8547  -2.8034  -2.7188
    -2.6248  -2.5044  -2.3248  -2.2477  -2.2046  -1.8580  -1.7751  -1.1504
    -0.6628   1.1887   1.6933   3.3085   4.7011   6.3278   6.6508   6.9451
     7.8397   7.9378   8.0485   8.7241   9.1230   9.6136   9.9176  10.4133
    10.5646  10.9629  11.1792  11.4990  11.7741  12.2035  12.4713  13.1676
    13.5621  13.7620  14.0942  14.2630  14.5502  14.9870  15.5713  15.6499

          k =-0.0864-0.1497 0.0000 (  5038 PWs)   bands (ev):

   -90.6776 -90.5626 -90.5296 -90.5171 -54.1961 -54.1539 -54.1077 -54.0952
   -54.0481 -54.0461 -54.0442 -54.0192 -54.0082 -53.9806 -53.9476 -53.9178
   -13.8544  -6.2577  -5.2803  -4.1335  -4.0718  -3.9970  -3.9178  -3.8629
    -3.6961  -3.3623  -3.2655  -3.1976  -3.1379  -3.0191  -2.8428  -2.8149
    -2.6745  -2.2825  -2.2627  -2.0877  -1.8522  -1.6603  -1.0423  -0.4416
     1.4103   1.4981   3.3232   3.8972   6.1724   7.3634   7.8542   7.9389
     8.1931   8.4054   8.9575   9.1260   9.4760   9.6327   9.8917  10.1110
    10.4410  10.6930  10.9565  11.2202  11.4257  11.6448  11.8750  12.4873
    13.0241  13.0961  13.4111  13.8372  14.3096  14.4339  14.6771  14.8124

     the Fermi energy is     1.5568 ev

!    total energy              =   -1205.86477602 Ry
     Harris-Foulkes estimate   =   -1205.86477605 Ry
     estimated scf accuracy    <       0.00000056 Ry

     The total energy is the sum of the following terms:

     one-electron contribution =   -5977.88090238 Ry
     hartree contribution      =    2986.34480908 Ry
     xc contribution           =    -123.23832347 Ry
     ewald contribution        =    1908.91838713 Ry
     electric field correction =       0.00000000 Ry
     smearing contrib. (-TS)   =      -0.00874639 Ry

     convergence has been achieved in   5 iterations

     Forces acting on atoms (Ry/au):


     negative rho (up, down):  2.423E-03 0.000E+00
     atom    1 type  1   force =    -0.00164764    0.00104488   -0.00161731
     atom    2 type  1   force =     0.00111840   -0.00028618   -0.01990005
     atom    3 type  1   force =    -0.01688089    0.00442938    0.00849745
     atom    4 type  1   force =     0.01758954   -0.00519012    0.01313567
     atom    5 type  2   force =    -0.00728947    0.00308351   -0.00797001
     atom    6 type  3   force =    -0.00016993    0.00006430    0.00008412
     atom    7 type  3   force =    -0.00014575   -0.00020311    0.00012005
     atom    8 type  3   force =     0.00742574   -0.00294266    0.00765008

     Total force =     0.039218     Total SCF correction =     0.001767
 !ASE
 
     init_run     :      0.89s CPU      0.91s WALL (       1 calls)
     electrons    :    645.42s CPU    650.14s WALL (      52 calls)
     update_pot   :     22.13s CPU     22.41s WALL (      51 calls)
     forces       :     31.04s CPU     31.14s WALL (      52 calls)

     Called by init_run:
     wfcinit      :      0.33s CPU      0.33s WALL (       1 calls)
     potinit      :      0.14s CPU      0.14s WALL (       1 calls)

     Called by electrons:
     c_bands      :    490.70s CPU    494.05s WALL (     393 calls)
     sum_band     :     98.29s CPU     99.04s WALL (     393 calls)
     v_of_rho     :     10.69s CPU     10.86s WALL (     444 calls)
     newd         :     47.86s CPU     47.95s WALL (     444 calls)
     mix_rho      :      2.46s CPU      2.48s WALL (     393 calls)

     Called by c_bands:
     init_us_2    :      2.76s CPU      2.83s WALL (    5034 calls)
     cegterg      :    475.81s CPU    478.97s WALL (    2358 calls)

     Called by *egterg:
     h_psi        :    217.11s CPU    219.63s WALL (    7754 calls)
     s_psi        :     14.51s CPU     14.53s WALL (    7754 calls)
     g_psi        :      2.15s CPU      2.16s WALL (    5390 calls)
     cdiaghg      :    128.77s CPU    129.04s WALL (    7436 calls)

     Called by h_psi:
     add_vuspsi   :     14.88s CPU     14.98s WALL (    7754 calls)

     General routines
     calbec       :     27.33s CPU     27.44s WALL (   10424 calls)
     fft          :     10.19s CPU     10.44s WALL (    7523 calls)
     ffts         :      0.26s CPU      0.29s WALL (     837 calls)
     fftw         :    184.06s CPU    185.69s WALL (  946768 calls)
     interpolate  :      1.38s CPU      1.47s WALL (     837 calls)
 
     Parallel routines
     fft_scatter  :     87.37s CPU     87.34s WALL (  955128 calls)
 
     PWSCF        : 11m45.26s CPU    11m51.87s WALL

 
   This run was terminated on:   7: 8:51  18Feb2017            

=------------------------------------------------------------------------------=
   JOB DONE.
=------------------------------------------------------------------------------=
Job  /afs/slac/g/suncat/bin/suncat-tsmpirun -x LD_LIBRARY_PATH -wdir /scratch/qe259882_1R7Pa pw.x -in pw.inp

TID   HOST_NAME   COMMAND_LINE            STATUS            TERMINATION_TIME
===== ========== ================  =======================  ===================
00000 suncat1015 pw.x -in pw.inp   Done                     02/18/2017 07:08:51
00001 suncat1015 pw.x -in pw.inp   Done                     02/18/2017 07:08:51
00002 suncat1015 pw.x -in pw.inp   Done                     02/18/2017 07:08:51
00003 suncat1015 pw.x -in pw.inp   Done                     02/18/2017 07:08:51
00004 suncat1015 pw.x -in pw.inp   Done                     02/18/2017 07:08:51
00005 suncat1015 pw.x -in pw.inp   Done                     02/18/2017 07:08:51
00006 suncat1015 pw.x -in pw.inp   Done                     02/18/2017 07:08:51
00007 suncat1015 pw.x -in pw.inp   Done                     02/18/2017 07:08:51
00008 suncat1015 pw.x -in pw.inp   Done                     02/18/2017 07:08:51
00009 suncat1015 pw.x -in pw.inp   Done                     02/18/2017 07:08:51
00010 suncat1015 pw.x -in pw.inp   Done                     02/18/2017 07:08:51
00011 suncat1015 pw.x -in pw.inp   Done                     02/18/2017 07:08:51
