  python dir          : /nfs/slac/g/suncatfs/aidank/software/ase-espresso/lib/python2.7/site-packages/espresso
  espresso dir        : /nfs/slac/g/suncatfs/aidank/software/espresso-qeforge/bin
  pseudo dir          : /nfs/slac/g/suncatfs/aidank/scripts/gbrv/
  ase-espresso py git : c91b4c2-git



     Program PWSCF v.5.0.2 (svn rev. 10453) starts on 18Feb2017 at  6:13:37 

     This program is part of the open-source Quantum ESPRESSO suite
     for quantum simulation of materials; please cite
         "P. Giannozzi et al., J. Phys.:Condens. Matter 21 395502 (2009);
          URL http://www.quantum-espresso.org", 
     in publications or presentations arising from this work. More details at
     http://www.quantum-espresso.org/quote

     Parallel version (MPI), running on    12 processors
     R & G space division:  proc/nbgrp/npool/nimage =      12
     Reading input from pw.inp
     Message from routine read_cards :
     DEPRECATED: no units specified in CELL_PARAMETERS card

     Current dimensions of program PWSCF are:
     Max number of different atomic species (ntypx) = 10
     Max number of k-points (npk) =  40000
     Max angular momentum in pseudopotentials (lmaxx) =  3
     Presently no symmetry can be used with electric field


     IMPORTANT: XC functional enforced from input :
     Exchange-correlation      = PBE ( 1  4  3  4 0)
     Any further DFT definition will be discarded
     Please, verify this is what you really want


     Subspace diagonalization in iterative solution of the eigenvalue problem:
     a serial algorithm will be used

 
     Parallelization info
     --------------------
     sticks:   dense  smooth     PW     G-vecs:    dense   smooth      PW
     Min          81      39     12                 9513     3338     586
     Max          82      40     16                 9522     3378     597
     Sum         981     479    161               114205    40347    7083
 


     bravais-lattice index     =            0
     lattice parameter (alat)  =       1.8897  a.u.
     unit-cell volume          =    1872.8848 (a.u.)^3
     number of atoms/cell      =            8
     number of atomic types    =            3
     number of electrons       =        84.00
     number of Kohn-Sham states=           72
     kinetic-energy cutoff     =      29.3995  Ry
     charge density cutoff     =     235.1957  Ry
     convergence threshold     =      1.0E-06
     mixing beta               =       0.1000
     number of iterations used =           15  plain     mixing
     Exchange-correlation      = PBE ( 1  4  3  4 0)
     nstep                     =           50


     celldm(1)=   1.889726  celldm(2)=   0.000000  celldm(3)=   0.000000
     celldm(4)=   0.000000  celldm(5)=   0.000000  celldm(6)=   0.000000

     crystal axes: (cart. coord. in units of alat)
               a(1) = (   5.784133   0.000000   0.000000 )  
               a(2) = (   1.446033   2.504603   0.000000 )  
               a(3) = (   0.000000   0.000000  19.157428 )  

     reciprocal axes: (cart. coord. in units 2 pi/alat)
               b(1) = (  0.172887 -0.099816  0.000000 )  
               b(2) = (  0.000000  0.399265  0.000000 )  
               b(3) = (  0.000000  0.000000  0.052199 )  


     PseudoPot. # 1 for Ag read from file:
     /nfs/slac/g/suncatfs/aidank/scripts/gbrv/Ag.UPF
     MD5 check sum: d66d668201baa78d5eb5b04ef7011058
     Pseudo is Ultrasoft + core correction, Zval = 19.0
     Generated by new atomic code, or converted to UPF format
     Using radial grid of  887 points,  6 beta functions with: 
                l(1) =   0
                l(2) =   0
                l(3) =   1
                l(4) =   1
                l(5) =   2
                l(6) =   2
     Q(r) pseudized with  6 coefficients,  rinner =    1.300   1.300   1.300
                                                       1.300   1.300

     PseudoPot. # 2 for N  read from file:
     /nfs/slac/g/suncatfs/aidank/scripts/gbrv/N.UPF
     MD5 check sum: 95339753478d7afb44899504a8723017
     Pseudo is Ultrasoft + core correction, Zval =  5.0
     Generated by new atomic code, or converted to UPF format
     Using radial grid of  729 points,  4 beta functions with: 
                l(1) =   0
                l(2) =   0
                l(3) =   1
                l(4) =   1
     Q(r) pseudized with  8 coefficients,  rinner =    0.900   0.900   0.900


     PseudoPot. # 3 for H  read from file:
     /nfs/slac/g/suncatfs/aidank/scripts/gbrv/H.UPF
     MD5 check sum: 761ae9a214b05c3daf00ab9f6b793d6f
     Pseudo is Ultrasoft, Zval =  1.0
     Generated by new atomic code, or converted to UPF format
     Using radial grid of  615 points,  2 beta functions with: 
                l(1) =   0
                l(2) =   0
     Q(r) pseudized with  8 coefficients,  rinner =    0.700

     atomic species   valence    mass     pseudopotential
        Ag1           19.00   107.86800     Ag( 1.00)
        N1             5.00    14.00670     N ( 1.00)
        H1             1.00     1.00794     H ( 1.00)

     No symmetry found



   Cartesian axes

     site n.     atom                  positions (alat units)
         1           Ag1 tau(   1) = (   5.4594866   0.7084522   7.1205000  )
         2           Ag1 tau(   2) = (   2.5674199   0.7084522   7.1205000  )
         3           Ag1 tau(   3) = (   1.1213865   1.5433200   9.4818626  )
         4           Ag1 tau(   4) = (   4.0134533   1.5433200   9.4818626  )
         5           N1  tau(   5) = (   4.5504617   1.6340367  11.4533895  )
         6           H1  tau(   6) = (   4.3915972   1.9307931  12.3935210  )
         7           H1  tau(   7) = (   4.2674150   0.6667562  11.4777780  )
         8           H1  tau(   8) = (   2.9712467   2.1948405  11.0216144  )

     number of k points=     6  Fermi-Dirac smearing, width (Ry)=  0.0073
                       cart. coord. in units 2pi/alat
        k(    1) = (   0.0000000   0.0000000   0.0000000), wk =   0.2500000
        k(    2) = (   0.0000000   0.0998162   0.0000000), wk =   0.5000000
        k(    3) = (   0.0000000  -0.1996324   0.0000000), wk =   0.2500000
        k(    4) = (  -0.0864434   0.0499081   0.0000000), wk =   0.2500000
        k(    5) = (  -0.0864434   0.1497243   0.0000000), wk =   0.5000000
        k(    6) = (  -0.0864434  -0.1497243   0.0000000), wk =   0.2500000

     Dense  grid:   114205 G-vectors     FFT dimensions: (  54,  27, 180)

     Smooth grid:    40347 G-vectors     FFT dimensions: (  40,  20, 125)

     Largest allocated arrays     est. size (Mb)     dimensions
        Kohn-Sham Wavefunctions         0.49 Mb     (     450,   72)
        NL pseudopotentials             0.59 Mb     (     450,   86)
        Each V/rho on FFT grid          0.33 Mb     (   21870)
        Each G-vector array             0.07 Mb     (    9513)
        G-vector shells                 0.03 Mb     (    3999)
     Largest temporary arrays     est. size (Mb)     dimensions
        Auxiliary wavefunctions         1.98 Mb     (     450,  288)
        Each subspace H/S matrix        1.27 Mb     (     288,  288)
        Each <psi_i|beta_j> matrix      0.09 Mb     (      86,   72)
        Arrays for rho mixing           5.01 Mb     (   21870,   15)

     Initial potential from superposition of free atoms
     Check: negative starting charge=   -0.002413

     starting charge   81.99978, renormalised to   84.00000

     negative rho (up, down):  2.471E-03 0.000E+00
 
     Adding external electric field

     Computed dipole along edir(3) : 
        Dipole               -1.1868 Ry au,         -3.0165 Debye
        Dipole field         -0.0080 Ry au
 
        Potential amp.        0.5621 Ry
        Total length         35.2972 bohr
 
     Starting wfc are   59 randomized atomic wfcs +   13 random wfc

     total cpu time spent up to now is        1.1 secs

     per-process dynamical memory:    18.4 Mb

     Self-consistent Calculation

     iteration #  1     ecut=    29.40 Ry     beta=0.10
     Davidson diagonalization with overlap
     ethr =  1.00E-02,  avg # of iterations =  7.0

     negative rho (up, down):  1.095E-03 0.000E+00
 
     Adding external electric field

     Computed dipole along edir(3) : 
        Dipole                1.3605 Ry au,          3.4580 Debye
        Dipole field          0.0091 Ry au
 
        Potential amp.       -0.6444 Ry
        Total length         35.2972 bohr
 

     total cpu time spent up to now is        5.0 secs

     total energy              =   -1203.79236952 Ry
     Harris-Foulkes estimate   =   -1207.56541457 Ry
     estimated scf accuracy    <      21.52638491 Ry

     iteration #  2     ecut=    29.40 Ry     beta=0.10
     Davidson diagonalization with overlap
     ethr =  1.00E-02,  avg # of iterations =  3.3

     negative rho (up, down):  7.789E-04 0.000E+00
 
     Adding external electric field

     Computed dipole along edir(3) : 
        Dipole                0.0078 Ry au,          0.0199 Debye
        Dipole field          0.0001 Ry au
 
        Potential amp.       -0.0037 Ry
        Total length         35.2972 bohr
 

     total cpu time spent up to now is        6.8 secs

     total energy              =   -1205.05277419 Ry
     Harris-Foulkes estimate   =   -1207.26313411 Ry
     estimated scf accuracy    <      24.19933416 Ry

     iteration #  3     ecut=    29.40 Ry     beta=0.10
     Davidson diagonalization with overlap
     ethr =  1.00E-02,  avg # of iterations =  2.5

     negative rho (up, down):  8.287E-04 0.000E+00
 
     Adding external electric field

     Computed dipole along edir(3) : 
        Dipole                0.0336 Ry au,          0.0854 Debye
        Dipole field          0.0002 Ry au
 
        Potential amp.       -0.0159 Ry
        Total length         35.2972 bohr
 

     total cpu time spent up to now is        8.4 secs

     total energy              =   -1205.91318905 Ry
     Harris-Foulkes estimate   =   -1206.12985730 Ry
     estimated scf accuracy    <       1.17654794 Ry

     iteration #  4     ecut=    29.40 Ry     beta=0.10
     Davidson diagonalization with overlap
     ethr =  1.40E-03,  avg # of iterations =  2.5

     negative rho (up, down):  9.488E-04 0.000E+00
 
     Adding external electric field

     Computed dipole along edir(3) : 
        Dipole                0.2387 Ry au,          0.6068 Debye
        Dipole field          0.0016 Ry au
 
        Potential amp.       -0.1131 Ry
        Total length         35.2972 bohr
 

     total cpu time spent up to now is       10.0 secs

     total energy              =   -1205.72115026 Ry
     Harris-Foulkes estimate   =   -1205.94332721 Ry
     estimated scf accuracy    <       0.51342189 Ry

     iteration #  5     ecut=    29.40 Ry     beta=0.10
     Davidson diagonalization with overlap
     ethr =  6.11E-04,  avg # of iterations =  3.8

     negative rho (up, down):  9.908E-04 0.000E+00
 
     Adding external electric field

     Computed dipole along edir(3) : 
        Dipole                0.2158 Ry au,          0.5485 Debye
        Dipole field          0.0014 Ry au
 
        Potential amp.       -0.1022 Ry
        Total length         35.2972 bohr
 

     total cpu time spent up to now is       11.9 secs

     total energy              =   -1205.80865336 Ry
     Harris-Foulkes estimate   =   -1205.81167352 Ry
     estimated scf accuracy    <       0.03367051 Ry

     iteration #  6     ecut=    29.40 Ry     beta=0.10
     Davidson diagonalization with overlap
     ethr =  4.01E-05,  avg # of iterations =  4.5

     negative rho (up, down):  1.408E-03 0.000E+00
 
     Adding external electric field

     Computed dipole along edir(3) : 
        Dipole                0.2344 Ry au,          0.5957 Debye
        Dipole field          0.0016 Ry au
 
        Potential amp.       -0.1110 Ry
        Total length         35.2972 bohr
 

     total cpu time spent up to now is       13.8 secs

     total energy              =   -1205.80144172 Ry
     Harris-Foulkes estimate   =   -1205.80917920 Ry
     estimated scf accuracy    <       0.02256875 Ry

     iteration #  7     ecut=    29.40 Ry     beta=0.10
     Davidson diagonalization with overlap
     ethr =  2.69E-05,  avg # of iterations =  5.5

     negative rho (up, down):  1.446E-03 0.000E+00
 
     Adding external electric field

     Computed dipole along edir(3) : 
        Dipole                0.2352 Ry au,          0.5977 Debye
        Dipole field          0.0016 Ry au
 
        Potential amp.       -0.1114 Ry
        Total length         35.2972 bohr
 

     total cpu time spent up to now is       15.9 secs

     total energy              =   -1205.80328977 Ry
     Harris-Foulkes estimate   =   -1205.80398215 Ry
     estimated scf accuracy    <       0.00555928 Ry

     iteration #  8     ecut=    29.40 Ry     beta=0.10
     Davidson diagonalization with overlap
     ethr =  6.62E-06,  avg # of iterations =  2.7

     negative rho (up, down):  1.730E-03 0.000E+00
 
     Adding external electric field

     Computed dipole along edir(3) : 
        Dipole                0.1909 Ry au,          0.4853 Debye
        Dipole field          0.0013 Ry au
 
        Potential amp.       -0.0904 Ry
        Total length         35.2972 bohr
 

     total cpu time spent up to now is       17.5 secs

     total energy              =   -1205.80291854 Ry
     Harris-Foulkes estimate   =   -1205.80362945 Ry
     estimated scf accuracy    <       0.00244829 Ry

     iteration #  9     ecut=    29.40 Ry     beta=0.10
     Davidson diagonalization with overlap
     ethr =  2.91E-06,  avg # of iterations =  3.7

     negative rho (up, down):  1.926E-03 0.000E+00
 
     Adding external electric field

     Computed dipole along edir(3) : 
        Dipole                0.1748 Ry au,          0.4443 Debye
        Dipole field          0.0012 Ry au
 
        Potential amp.       -0.0828 Ry
        Total length         35.2972 bohr
 

     total cpu time spent up to now is       19.3 secs

     total energy              =   -1205.80318490 Ry
     Harris-Foulkes estimate   =   -1205.80328251 Ry
     estimated scf accuracy    <       0.00039673 Ry

     iteration # 10     ecut=    29.40 Ry     beta=0.10
     Davidson diagonalization with overlap
     ethr =  4.72E-07,  avg # of iterations =  3.0

     negative rho (up, down):  2.069E-03 0.000E+00
 
     Adding external electric field

     Computed dipole along edir(3) : 
        Dipole                0.1773 Ry au,          0.4505 Debye
        Dipole field          0.0012 Ry au
 
        Potential amp.       -0.0840 Ry
        Total length         35.2972 bohr
 

     total cpu time spent up to now is       20.9 secs

     total energy              =   -1205.80320270 Ry
     Harris-Foulkes estimate   =   -1205.80321587 Ry
     estimated scf accuracy    <       0.00020431 Ry

     iteration # 11     ecut=    29.40 Ry     beta=0.10
     Davidson diagonalization with overlap
     ethr =  2.43E-07,  avg # of iterations =  1.7

     negative rho (up, down):  2.202E-03 0.000E+00
 
     Adding external electric field

     Computed dipole along edir(3) : 
        Dipole                0.1753 Ry au,          0.4455 Debye
        Dipole field          0.0012 Ry au
 
        Potential amp.       -0.0830 Ry
        Total length         35.2972 bohr
 

     total cpu time spent up to now is       22.3 secs

     total energy              =   -1205.80322100 Ry
     Harris-Foulkes estimate   =   -1205.80322402 Ry
     estimated scf accuracy    <       0.00002168 Ry

     iteration # 12     ecut=    29.40 Ry     beta=0.10
     Davidson diagonalization with overlap
     ethr =  2.58E-08,  avg # of iterations =  2.0

     negative rho (up, down):  2.303E-03 0.000E+00
 
     Adding external electric field

     Computed dipole along edir(3) : 
        Dipole                0.1734 Ry au,          0.4408 Debye
        Dipole field          0.0012 Ry au
 
        Potential amp.       -0.0821 Ry
        Total length         35.2972 bohr
 

     total cpu time spent up to now is       23.8 secs

     total energy              =   -1205.80322530 Ry
     Harris-Foulkes estimate   =   -1205.80322759 Ry
     estimated scf accuracy    <       0.00001327 Ry

     iteration # 13     ecut=    29.40 Ry     beta=0.10
     Davidson diagonalization with overlap
     ethr =  1.58E-08,  avg # of iterations =  1.0

     negative rho (up, down):  2.330E-03 0.000E+00
 
     Adding external electric field

     Computed dipole along edir(3) : 
        Dipole                0.1727 Ry au,          0.4390 Debye
        Dipole field          0.0012 Ry au
 
        Potential amp.       -0.0818 Ry
        Total length         35.2972 bohr
 

     total cpu time spent up to now is       25.1 secs

     total energy              =   -1205.80322666 Ry
     Harris-Foulkes estimate   =   -1205.80322731 Ry
     estimated scf accuracy    <       0.00000260 Ry

     iteration # 14     ecut=    29.40 Ry     beta=0.10
     Davidson diagonalization with overlap
     ethr =  3.10E-09,  avg # of iterations =  2.0

     negative rho (up, down):  2.359E-03 0.000E+00
 
     Adding external electric field

     Computed dipole along edir(3) : 
        Dipole                0.1739 Ry au,          0.4421 Debye
        Dipole field          0.0012 Ry au
 
        Potential amp.       -0.0824 Ry
        Total length         35.2972 bohr
 

     total cpu time spent up to now is       26.5 secs

     End of self-consistent calculation

          k = 0.0000 0.0000 0.0000 (  5071 PWs)   bands (ev):

   -90.4871 -90.2208 -90.1560 -90.1116 -53.9924 -53.9612 -53.9050 -53.7458
   -53.6612 -53.6355 -53.6126 -53.5976 -53.5921 -53.5734 -53.5283 -53.5244
   -15.5233  -6.2653  -5.2820  -4.6106  -4.4943  -4.3638  -4.1347  -3.5239
    -3.1432  -2.9834  -2.9500  -2.8656  -2.8435  -2.7488  -2.6055  -2.1210
    -1.9635  -1.8201  -1.7474  -1.5230  -1.4859  -1.4336  -1.2090  -1.1063
    -0.3148   0.6970   1.4699   2.6712   3.4946   4.5640   5.3339   5.8170
     6.4640   6.6637   7.5676   8.0572   9.0806   9.3367   9.4834   9.9018
    10.5029  11.0592  11.1227  11.4083  11.6235  12.2845  12.6362  12.8210
    13.2029  13.8434  13.9591  14.5189  15.0730  15.1421  15.8292  16.5876

          k = 0.0000 0.0998 0.0000 (  5031 PWs)   bands (ev):

   -90.4842 -90.2176 -90.1535 -90.1089 -53.9879 -53.9540 -53.9442 -53.7276
   -53.6993 -53.6377 -53.6327 -53.6232 -53.5954 -53.5780 -53.5561 -53.5278
   -15.1142  -6.3161  -4.8624  -4.2489  -4.0818  -3.7852  -3.6813  -3.4181
    -3.3536  -3.2458  -2.9523  -2.8242  -2.6943  -2.5186  -2.4773  -2.3638
    -2.2681  -2.1657  -2.0123  -1.8956  -1.7444  -1.5286  -1.3859  -0.8745
    -0.7132   1.5554   2.1452   3.2703   4.9805   6.0002   6.5449   6.9446
     7.9019   8.1853   8.4057   8.7428   9.0750   9.4085   9.6861  10.6605
    10.6718  10.8903  11.1334  11.4819  12.0503  12.3477  12.4522  13.2748
    13.4682  13.6532  14.0808  14.4142  14.8639  15.0560  15.4061  15.5449

          k = 0.0000-0.1996 0.0000 (  5048 PWs)   bands (ev):

   -90.4813 -90.2146 -90.1506 -90.1062 -53.9927 -53.9810 -53.9490 -53.7496
   -53.7321 -53.6541 -53.6291 -53.6258 -53.6089 -53.5883 -53.5521 -53.5359
   -14.6254  -6.9424  -5.0663  -4.5703  -4.4103  -4.3509  -4.1022  -3.9079
    -3.7423  -3.3858  -2.9234  -2.7136  -2.5213  -2.1785  -1.8802  -1.6763
    -1.5845  -1.5614  -1.3027  -1.1623  -1.1034  -1.0860  -0.8673  -0.4806
     2.1679   2.5051   3.0589   3.3647   4.8280   5.9371   6.3483   6.5792
     8.0468   8.4244   8.9603   9.7338  10.1014  10.4275  10.7102  10.8964
    11.0613  11.0994  11.2296  11.2556  11.5066  12.2419  12.3504  12.4962
    12.5740  12.7084  13.0706  13.2336  13.5813  13.8106  14.2421  14.4543

          k =-0.0864 0.0499 0.0000 (  5024 PWs)   bands (ev):

   -90.4870 -90.2203 -90.1565 -90.1117 -53.9916 -53.9521 -53.9037 -53.7120
   -53.6568 -53.6488 -53.6336 -53.6057 -53.5956 -53.5770 -53.5271 -53.5236
   -15.5124  -6.1713  -5.0957  -4.1837  -3.9753  -3.8513  -3.7354  -3.3960
    -3.2381  -3.1825  -2.9759  -2.8907  -2.6126  -2.4479  -2.4043  -2.3436
    -2.2439  -2.1806  -2.1134  -2.0202  -1.9251  -1.7476  -1.4835  -1.3951
    -1.0532  -0.2781   1.4696   2.4228   3.6366   5.2836   5.9189   6.1981
     6.6641   6.8361   7.1557   7.8949   8.2894   8.5413   9.1682   9.7365
    10.5042  10.8956  11.2299  12.0200  12.2396  12.6713  13.8166  14.0219
    14.5378  14.7718  15.5429  15.8556  16.0661  16.4939  16.5413  17.1421

          k =-0.0864 0.1497 0.0000 (  5031 PWs)   bands (ev):

   -90.4842 -90.2176 -90.1535 -90.1089 -53.9879 -53.9520 -53.9463 -53.7262
   -53.7001 -53.6428 -53.6316 -53.6198 -53.5951 -53.5781 -53.5562 -53.5279
   -15.1142  -6.3153  -4.8533  -4.2567  -3.9992  -3.7449  -3.6926  -3.5363
    -3.3505  -3.2367  -2.9547  -2.8487  -2.6791  -2.5437  -2.4433  -2.3461
    -2.3257  -2.1608  -2.0653  -1.9032  -1.8127  -1.5042  -1.4200  -0.8676
    -0.5563   1.7198   2.0714   3.3650   4.8775   5.9570   6.5060   6.8953
     7.8089   8.1030   8.3585   8.7431   9.0189   9.4402   9.6408  10.5673
    10.6929  11.0009  11.1981  11.6530  12.0453  12.2930  12.5265  13.4168
    13.5982  13.7364  14.1575  14.4751  14.8452  15.1551  15.4220  15.5042

          k =-0.0864-0.1497 0.0000 (  5038 PWs)   bands (ev):

   -90.4813 -90.2147 -90.1507 -90.1062 -53.9909 -53.9801 -53.9439 -53.7385
   -53.7048 -53.6808 -53.6405 -53.6279 -53.6151 -53.5908 -53.5519 -53.5351
   -14.6320  -6.9449  -4.9956  -4.0543  -3.7697  -3.6946  -3.5391  -3.4820
    -3.4717  -3.2977  -2.9552  -2.9367  -2.7591  -2.7006  -2.5500  -2.4915
    -2.3095  -2.1107  -1.8199  -1.6814  -1.4452  -1.2559  -0.7030  -0.4128
     1.7047   2.0205   3.3503   4.3988   5.5662   7.6564   8.1235   8.2149
     8.3574   8.4965   8.8710   9.1567   9.5506   9.6129   9.8608  10.0141
    10.5464  10.8257  11.0161  11.4339  11.8504  11.9511  12.3431  12.4748
    12.9392  13.6072  13.6932  13.7538  14.2577  14.5608  14.7859  14.8546

     the Fermi energy is     1.9635 ev

!    total energy              =   -1205.80323335 Ry
     Harris-Foulkes estimate   =   -1205.80322408 Ry
     estimated scf accuracy    <       0.00000032 Ry

     The total energy is the sum of the following terms:

     one-electron contribution =   -6043.42207692 Ry
     hartree contribution      =    3019.73083749 Ry
     xc contribution           =    -123.30966153 Ry
     ewald contribution        =    1941.20501752 Ry
     electric field correction =       0.00020302 Ry
     smearing contrib. (-TS)   =      -0.00755293 Ry

     convergence has been achieved in  14 iterations

     Forces acting on atoms (Ry/au):


     negative rho (up, down):  2.359E-03 0.000E+00
     atom    1 type  1   force =    -0.00228507    0.00216468   -0.00932608
     atom    2 type  1   force =     0.00307003   -0.00162142   -0.01236000
     atom    3 type  1   force =     0.00587572   -0.00865462    0.02659433
     atom    4 type  1   force =    -0.02886937    0.02117846   -0.08572382
     atom    5 type  2   force =     0.00497275    0.00916939    0.02833719
     atom    6 type  3   force =    -0.01055568    0.03813071    0.05137678
     atom    7 type  3   force =     0.00240724   -0.05472967    0.02154739
     atom    8 type  3   force =     0.02538440   -0.00563752   -0.02044578

     Total force =     0.139231     Total SCF correction =     0.003229
 !ASE
     Check: negative starting charge=   -0.002413
     NEW-OLD atomic charge density approx. for the potential
     Check: negative starting charge=   -0.002376

     negative rho (up, down):  2.328E-03 0.000E+00
 
     Adding external electric field

     Computed dipole along edir(3) : 
        Dipole                0.1740 Ry au,          0.4421 Debye
        Dipole field          0.0012 Ry au
 
        Potential amp.       -0.0824 Ry
        Total length         35.2972 bohr
 

     total cpu time spent up to now is       27.7 secs

     per-process dynamical memory:    31.3 Mb

     Self-consistent Calculation

     iteration #  1     ecut=    29.40 Ry     beta=0.10
     Davidson diagonalization with overlap
     ethr =  3.10E-09,  avg # of iterations =  6.5

     negative rho (up, down):  2.311E-03 0.000E+00
 
     Adding external electric field

     Computed dipole along edir(3) : 
        Dipole                0.2356 Ry au,          0.5988 Debye
        Dipole field          0.0016 Ry au
 
        Potential amp.       -0.1116 Ry
        Total length         35.2972 bohr
 

     total cpu time spent up to now is       31.1 secs

     total energy              =   -1205.80428028 Ry
     Harris-Foulkes estimate   =   -1205.81382116 Ry
     estimated scf accuracy    <       0.06187663 Ry

     iteration #  2     ecut=    29.40 Ry     beta=0.10
     Davidson diagonalization with overlap
     ethr =  7.37E-05,  avg # of iterations =  2.2

     negative rho (up, down):  2.302E-03 0.000E+00
 
     Adding external electric field

     Computed dipole along edir(3) : 
        Dipole                0.1663 Ry au,          0.4226 Debye
        Dipole field          0.0011 Ry au
 
        Potential amp.       -0.0787 Ry
        Total length         35.2972 bohr
 

     total cpu time spent up to now is       32.6 secs

     total energy              =   -1205.80535904 Ry
     Harris-Foulkes estimate   =   -1205.80919964 Ry
     estimated scf accuracy    <       0.03474750 Ry

     iteration #  3     ecut=    29.40 Ry     beta=0.10
     Davidson diagonalization with overlap
     ethr =  4.14E-05,  avg # of iterations =  2.8

     negative rho (up, down):  2.302E-03 0.000E+00
 
     Adding external electric field

     Computed dipole along edir(3) : 
        Dipole                0.1347 Ry au,          0.3423 Debye
        Dipole field          0.0009 Ry au
 
        Potential amp.       -0.0638 Ry
        Total length         35.2972 bohr
 

     total cpu time spent up to now is       34.3 secs

     total energy              =   -1205.80337519 Ry
     Harris-Foulkes estimate   =   -1205.80681718 Ry
     estimated scf accuracy    <       0.01275547 Ry

     iteration #  4     ecut=    29.40 Ry     beta=0.10
     Davidson diagonalization with overlap
     ethr =  1.52E-05,  avg # of iterations =  3.7

     negative rho (up, down):  2.341E-03 0.000E+00
 
     Adding external electric field

     Computed dipole along edir(3) : 
        Dipole                0.1317 Ry au,          0.3346 Debye
        Dipole field          0.0009 Ry au
 
        Potential amp.       -0.0624 Ry
        Total length         35.2972 bohr
 

     total cpu time spent up to now is       36.1 secs

     total energy              =   -1205.80406773 Ry
     Harris-Foulkes estimate   =   -1205.80447834 Ry
     estimated scf accuracy    <       0.00261820 Ry

     iteration #  5     ecut=    29.40 Ry     beta=0.10
     Davidson diagonalization with overlap
     ethr =  3.12E-06,  avg # of iterations =  3.3

     negative rho (up, down):  2.481E-03 0.000E+00
 
     Adding external electric field

     Computed dipole along edir(3) : 
        Dipole                0.1355 Ry au,          0.3445 Debye
        Dipole field          0.0009 Ry au
 
        Potential amp.       -0.0642 Ry
        Total length         35.2972 bohr
 

     total cpu time spent up to now is       37.7 secs

     total energy              =   -1205.80407507 Ry
     Harris-Foulkes estimate   =   -1205.80420210 Ry
     estimated scf accuracy    <       0.00101713 Ry

     iteration #  6     ecut=    29.40 Ry     beta=0.10
     Davidson diagonalization with overlap
     ethr =  1.21E-06,  avg # of iterations =  2.8

     negative rho (up, down):  2.470E-03 0.000E+00
 
     Adding external electric field

     Computed dipole along edir(3) : 
        Dipole                0.1447 Ry au,          0.3679 Debye
        Dipole field          0.0010 Ry au
 
        Potential amp.       -0.0686 Ry
        Total length         35.2972 bohr
 

     total cpu time spent up to now is       39.3 secs

     total energy              =   -1205.80414425 Ry
     Harris-Foulkes estimate   =   -1205.80417620 Ry
     estimated scf accuracy    <       0.00050122 Ry

     iteration #  7     ecut=    29.40 Ry     beta=0.10
     Davidson diagonalization with overlap
     ethr =  5.97E-07,  avg # of iterations =  2.7

     negative rho (up, down):  2.486E-03 0.000E+00
 
     Adding external electric field

     Computed dipole along edir(3) : 
        Dipole                0.1530 Ry au,          0.3890 Debye
        Dipole field          0.0010 Ry au
 
        Potential amp.       -0.0725 Ry
        Total length         35.2972 bohr
 

     total cpu time spent up to now is       40.9 secs

     total energy              =   -1205.80416841 Ry
     Harris-Foulkes estimate   =   -1205.80415549 Ry
     estimated scf accuracy    <       0.00005552 Ry

     iteration #  8     ecut=    29.40 Ry     beta=0.10
     Davidson diagonalization with overlap
     ethr =  6.61E-08,  avg # of iterations =  3.0

     negative rho (up, down):  2.458E-03 0.000E+00
 
     Adding external electric field

     Computed dipole along edir(3) : 
        Dipole                0.1526 Ry au,          0.3879 Debye
        Dipole field          0.0010 Ry au
 
        Potential amp.       -0.0723 Ry
        Total length         35.2972 bohr
 

     total cpu time spent up to now is       42.5 secs

     total energy              =   -1205.80417550 Ry
     Harris-Foulkes estimate   =   -1205.80417528 Ry
     estimated scf accuracy    <       0.00000747 Ry

     iteration #  9     ecut=    29.40 Ry     beta=0.10
     Davidson diagonalization with overlap
     ethr =  8.89E-09,  avg # of iterations =  1.0

     negative rho (up, down):  2.439E-03 0.000E+00
 
     Adding external electric field

     Computed dipole along edir(3) : 
        Dipole                0.1536 Ry au,          0.3905 Debye
        Dipole field          0.0010 Ry au
 
        Potential amp.       -0.0728 Ry
        Total length         35.2972 bohr
 

     total cpu time spent up to now is       43.9 secs

     total energy              =   -1205.80417642 Ry
     Harris-Foulkes estimate   =   -1205.80417370 Ry
     estimated scf accuracy    <       0.00000412 Ry

     iteration # 10     ecut=    29.40 Ry     beta=0.10
     Davidson diagonalization with overlap
     ethr =  4.91E-09,  avg # of iterations =  2.0

     negative rho (up, down):  2.321E-03 0.000E+00
 
     Adding external electric field

     Computed dipole along edir(3) : 
        Dipole                0.1503 Ry au,          0.3819 Debye
        Dipole field          0.0010 Ry au
 
        Potential amp.       -0.0712 Ry
        Total length         35.2972 bohr
 

     total cpu time spent up to now is       45.3 secs

     End of self-consistent calculation

          k = 0.0000 0.0000 0.0000 (  5071 PWs)   bands (ev):

   -90.5514 -90.2858 -90.2284 -90.1891 -54.0535 -54.0200 -53.9668 -53.8130
   -53.7286 -53.6995 -53.6829 -53.6740 -53.6661 -53.6456 -53.6046 -53.5991
   -14.5379  -5.8411  -5.1724  -4.6301  -4.5621  -4.4112  -4.1804  -3.4935
    -3.0627  -3.0323  -2.9941  -2.9297  -2.9075  -2.8082  -2.6591  -2.1247
    -2.0361  -1.8309  -1.7840  -1.5784  -1.5163  -1.4776  -1.2804  -1.1761
     0.1399   0.5655   1.4813   2.5922   3.3484   4.5880   5.3441   5.7724
     6.4107   6.6874   7.3014   7.8656   8.0803   9.0057   9.3322   9.7560
    10.4870  10.9991  11.1142  11.4086  11.5695  12.2609  12.6096  12.8069
    13.1613  13.7345  13.9554  14.3633  14.9483  15.1233  15.7736  16.4292

          k = 0.0000 0.0998 0.0000 (  5031 PWs)   bands (ev):

   -90.5485 -90.2826 -90.2259 -90.1865 -54.0478 -54.0122 -54.0076 -53.7947
   -53.7658 -53.7114 -53.6996 -53.6931 -53.6713 -53.6533 -53.6309 -53.6003
   -14.0465  -5.6602  -4.7847  -4.1495  -4.1121  -3.8375  -3.7411  -3.4773
    -3.4044  -3.2819  -3.0225  -2.8831  -2.7560  -2.5828  -2.5336  -2.4211
    -2.3066  -2.2369  -2.0667  -1.9621  -1.7735  -1.5917  -1.4449  -0.9927
    -0.7334   1.4672   2.0174   3.3360   4.8549   5.9658   6.5395   6.9246
     7.7774   8.1261   8.3101   8.6770   8.9979   9.3906   9.6629  10.3878
    10.6078  10.6962  11.0389  11.1810  11.8382  12.0552  12.3894  13.0712
    13.3208  13.5863  13.9826  14.2656  14.7856  14.9822  15.4070  15.5385

          k = 0.0000-0.1996 0.0000 (  5048 PWs)   bands (ev):

   -90.5456 -90.2796 -90.2231 -90.1837 -54.0542 -54.0413 -54.0088 -53.8170
   -53.8006 -53.7247 -53.7013 -53.6914 -53.6864 -53.6651 -53.6229 -53.6092
   -13.4288  -6.4504  -4.8386  -4.6210  -4.4752  -4.4036  -4.1638  -3.9672
    -3.7463  -3.4157  -2.9500  -2.7888  -2.5907  -2.2188  -1.9501  -1.7423
    -1.6514  -1.6304  -1.3720  -1.2338  -1.1761  -1.1583  -0.9899  -0.5253
     2.0663   2.4193   2.9801   3.2806   4.8084   5.8428   6.2818   6.5175
     7.9268   8.2947   8.5148   9.7418  10.0666  10.3748  10.6658  10.8603
    11.0381  11.0894  11.2169  11.2870  11.5009  12.1686  12.2677  12.4383
    12.5404  12.6863  13.0015  13.1211  13.4913  13.7737  14.1968  14.3847

          k =-0.0864 0.0499 0.0000 (  5024 PWs)   bands (ev):

   -90.5513 -90.2852 -90.2290 -90.1892 -54.0494 -54.0138 -53.9655 -53.7771
   -53.7238 -53.7211 -53.6996 -53.6806 -53.6701 -53.6490 -53.6044 -53.5973
   -14.5238  -5.5684  -5.0752  -4.2328  -4.0495  -3.9184  -3.7948  -3.4563
    -3.2784  -3.2100  -3.0380  -2.7898  -2.6562  -2.5086  -2.4748  -2.4036
    -2.3165  -2.2362  -2.1751  -2.0349  -1.9784  -1.7313  -1.4695  -1.4655
    -1.1023   0.0862   1.4005   2.2074   3.7434   5.0695   5.8901   6.2042
     6.6770   6.8344   7.1188   7.7484   8.0027   8.2649   8.9423   9.1396
    10.5109  10.8716  11.1686  11.9158  12.1592  12.5228  13.7705  14.0204
    14.4879  14.6161  15.3890  15.5109  15.9338  16.3297  16.4571  17.0011

          k =-0.0864 0.1497 0.0000 (  5031 PWs)   bands (ev):

   -90.5485 -90.2826 -90.2259 -90.1865 -54.0471 -54.0142 -54.0064 -53.7929
   -53.7669 -53.7163 -53.6973 -53.6913 -53.6708 -53.6534 -53.6309 -53.6004
   -14.0465  -5.6700  -4.7918  -4.1939  -3.9951  -3.7738  -3.7257  -3.5897
    -3.3993  -3.2844  -3.0180  -2.9050  -2.7284  -2.6035  -2.5133  -2.3949
    -2.3431  -2.2267  -2.1240  -1.9735  -1.8751  -1.5729  -1.4803  -0.9184
    -0.6749   1.6237   1.9531   3.4237   4.7613   5.9291   6.5071   6.8603
     7.6640   8.0716   8.2951   8.6520   8.9284   9.3701   9.6370  10.4085
    10.6187  10.8845  11.0440  11.2939  11.8738  12.1351  12.3172  13.1315
    13.4824  13.6979  14.1088  14.3370  14.7408  15.0352  15.4113  15.4702

          k =-0.0864-0.1497 0.0000 (  5038 PWs)   bands (ev):

   -90.5456 -90.2796 -90.2231 -90.1837 -54.0519 -54.0390 -54.0053 -53.8053
   -53.7699 -53.7551 -53.7130 -53.6943 -53.6925 -53.6670 -53.6226 -53.6083
   -13.4372  -6.4559  -4.6874  -4.1049  -3.8390  -3.7608  -3.6080  -3.5541
    -3.5490  -3.3374  -3.0264  -2.9692  -2.8277  -2.7684  -2.6110  -2.5565
    -2.3632  -2.1718  -1.8842  -1.7437  -1.5145  -1.3275  -0.8719  -0.3878
     1.6494   1.9289   3.3603   4.3206   5.4970   7.5796   7.8632   8.0909
     8.2455   8.4135   8.8311   9.1161   9.5336   9.5708   9.7656   9.8470
    10.4674  10.7787  10.9585  11.3359  11.6113  11.8878  12.2387  12.2934
    12.8462  13.5092  13.5506  13.6866  14.2394  14.5408  14.7236  14.7419

     the Fermi energy is     1.8571 ev

!    total energy              =   -1205.80418231 Ry
     Harris-Foulkes estimate   =   -1205.80418375 Ry
     estimated scf accuracy    <       0.00000073 Ry

     The total energy is the sum of the following terms:

     one-electron contribution =   -6018.08446307 Ry
     hartree contribution      =    3006.92456575 Ry
     xc contribution           =    -123.12340049 Ry
     ewald contribution        =    1928.48729218 Ry
     electric field correction =       0.00015149 Ry
     smearing contrib. (-TS)   =      -0.00832818 Ry

     convergence has been achieved in  10 iterations

     Forces acting on atoms (Ry/au):


     negative rho (up, down):  2.321E-03 0.000E+00
     atom    1 type  1   force =    -0.00227605    0.00220383   -0.00884639
     atom    2 type  1   force =     0.00290799   -0.00176581   -0.01475525
     atom    3 type  1   force =     0.00548924   -0.00800626    0.02484777
     atom    4 type  1   force =    -0.01937392    0.01576598   -0.05304920
     atom    5 type  2   force =    -0.05011737   -0.08413083    0.09945843
     atom    6 type  3   force =     0.00111960   -0.02174062   -0.06514954
     atom    7 type  3   force =     0.03599339    0.10158855    0.02513378
     atom    8 type  3   force =     0.02625712   -0.00391484   -0.00763961

     Total force =     0.204152     Total SCF correction =     0.003844
 !ASE
     Check: negative starting charge=   -0.002376
     NEW-OLD atomic charge density approx. for the potential
     Check: negative starting charge=   -0.002398

     negative rho (up, down):  2.400E-03 0.000E+00
 
     Adding external electric field

     Computed dipole along edir(3) : 
        Dipole                0.1503 Ry au,          0.3819 Debye
        Dipole field          0.0010 Ry au
 
        Potential amp.       -0.0712 Ry
        Total length         35.2972 bohr
 

     total cpu time spent up to now is       46.5 secs

     per-process dynamical memory:    31.3 Mb

     Self-consistent Calculation

     iteration #  1     ecut=    29.40 Ry     beta=0.10
     Davidson diagonalization with overlap
     ethr =  4.91E-09,  avg # of iterations =  6.2

     negative rho (up, down):  2.395E-03 0.000E+00
 
     Adding external electric field

     Computed dipole along edir(3) : 
        Dipole                0.1264 Ry au,          0.3213 Debye
        Dipole field          0.0008 Ry au
 
        Potential amp.       -0.0599 Ry
        Total length         35.2972 bohr
 

     total cpu time spent up to now is       49.8 secs

     total energy              =   -1205.81365063 Ry
     Harris-Foulkes estimate   =   -1205.81552512 Ry
     estimated scf accuracy    <       0.01215859 Ry

     iteration #  2     ecut=    29.40 Ry     beta=0.10
     Davidson diagonalization with overlap
     ethr =  1.45E-05,  avg # of iterations =  2.3

     negative rho (up, down):  2.390E-03 0.000E+00
 
     Adding external electric field

     Computed dipole along edir(3) : 
        Dipole                0.1559 Ry au,          0.3962 Debye
        Dipole field          0.0010 Ry au
 
        Potential amp.       -0.0738 Ry
        Total length         35.2972 bohr
 

     total cpu time spent up to now is       51.3 secs

     total energy              =   -1205.81372733 Ry
     Harris-Foulkes estimate   =   -1205.81435862 Ry
     estimated scf accuracy    <       0.00652676 Ry

     iteration #  3     ecut=    29.40 Ry     beta=0.10
     Davidson diagonalization with overlap
     ethr =  7.77E-06,  avg # of iterations =  3.2

     negative rho (up, down):  2.386E-03 0.000E+00
 
     Adding external electric field

     Computed dipole along edir(3) : 
        Dipole                0.1702 Ry au,          0.4325 Debye
        Dipole field          0.0011 Ry au
 
        Potential amp.       -0.0806 Ry
        Total length         35.2972 bohr
 

     total cpu time spent up to now is       52.9 secs

     total energy              =   -1205.81320668 Ry
     Harris-Foulkes estimate   =   -1205.81394042 Ry
     estimated scf accuracy    <       0.00295996 Ry

     iteration #  4     ecut=    29.40 Ry     beta=0.10
     Davidson diagonalization with overlap
     ethr =  3.52E-06,  avg # of iterations =  3.5

     negative rho (up, down):  2.386E-03 0.000E+00
 
     Adding external electric field

     Computed dipole along edir(3) : 
        Dipole                0.1743 Ry au,          0.4431 Debye
        Dipole field          0.0012 Ry au
 
        Potential amp.       -0.0826 Ry
        Total length         35.2972 bohr
 

     total cpu time spent up to now is       54.6 secs

     total energy              =   -1205.81339390 Ry
     Harris-Foulkes estimate   =   -1205.81346702 Ry
     estimated scf accuracy    <       0.00063106 Ry

     iteration #  5     ecut=    29.40 Ry     beta=0.10
     Davidson diagonalization with overlap
     ethr =  7.51E-07,  avg # of iterations =  2.8

     negative rho (up, down):  2.397E-03 0.000E+00
 
     Adding external electric field

     Computed dipole along edir(3) : 
        Dipole                0.1704 Ry au,          0.4330 Debye
        Dipole field          0.0011 Ry au
 
        Potential amp.       -0.0807 Ry
        Total length         35.2972 bohr
 

     total cpu time spent up to now is       56.2 secs

     total energy              =   -1205.81341349 Ry
     Harris-Foulkes estimate   =   -1205.81343677 Ry
     estimated scf accuracy    <       0.00021076 Ry

     iteration #  6     ecut=    29.40 Ry     beta=0.10
     Davidson diagonalization with overlap
     ethr =  2.51E-07,  avg # of iterations =  2.0

     negative rho (up, down):  2.394E-03 0.000E+00
 
     Adding external electric field

     Computed dipole along edir(3) : 
        Dipole                0.1689 Ry au,          0.4292 Debye
        Dipole field          0.0011 Ry au
 
        Potential amp.       -0.0800 Ry
        Total length         35.2972 bohr
 

     total cpu time spent up to now is       57.6 secs

     total energy              =   -1205.81342591 Ry
     Harris-Foulkes estimate   =   -1205.81343111 Ry
     estimated scf accuracy    <       0.00004903 Ry

     iteration #  7     ecut=    29.40 Ry     beta=0.10
     Davidson diagonalization with overlap
     ethr =  5.84E-08,  avg # of iterations =  2.0

     negative rho (up, down):  2.389E-03 0.000E+00
 
     Adding external electric field

     Computed dipole along edir(3) : 
        Dipole                0.1650 Ry au,          0.4194 Debye
        Dipole field          0.0011 Ry au
 
        Potential amp.       -0.0782 Ry
        Total length         35.2972 bohr
 

     total cpu time spent up to now is       59.1 secs

     total energy              =   -1205.81342831 Ry
     Harris-Foulkes estimate   =   -1205.81343911 Ry
     estimated scf accuracy    <       0.00001566 Ry

     iteration #  8     ecut=    29.40 Ry     beta=0.10
     Davidson diagonalization with overlap
     ethr =  1.86E-08,  avg # of iterations =  2.0

     negative rho (up, down):  2.381E-03 0.000E+00
 
     Adding external electric field

     Computed dipole along edir(3) : 
        Dipole                0.1649 Ry au,          0.4192 Debye
        Dipole field          0.0011 Ry au
 
        Potential amp.       -0.0781 Ry
        Total length         35.2972 bohr
 

     total cpu time spent up to now is       60.5 secs

     total energy              =   -1205.81343018 Ry
     Harris-Foulkes estimate   =   -1205.81343019 Ry
     estimated scf accuracy    <       0.00000159 Ry

     iteration #  9     ecut=    29.40 Ry     beta=0.10
     Davidson diagonalization with overlap
     ethr =  1.89E-09,  avg # of iterations =  2.0

     negative rho (up, down):  2.338E-03 0.000E+00
 
     Adding external electric field

     Computed dipole along edir(3) : 
        Dipole                0.1647 Ry au,          0.4186 Debye
        Dipole field          0.0011 Ry au
 
        Potential amp.       -0.0780 Ry
        Total length         35.2972 bohr
 

     total cpu time spent up to now is       61.9 secs

     End of self-consistent calculation

          k = 0.0000 0.0000 0.0000 (  5071 PWs)   bands (ev):

   -90.5122 -90.2491 -90.1884 -90.1447 -54.0117 -53.9875 -53.9294 -53.7752
   -53.6905 -53.6632 -53.6437 -53.6305 -53.6250 -53.6049 -53.5604 -53.5570
   -15.0209  -6.0287  -5.2450  -4.6125  -4.5246  -4.3828  -4.1528  -3.4939
    -3.0730  -3.0101  -2.9789  -2.8934  -2.8733  -2.7757  -2.6276  -2.1150
    -1.9944  -1.8219  -1.7616  -1.5433  -1.4945  -1.4598  -1.2391  -1.1366
    -0.1230   0.6362   1.4786   2.6376   3.4306   4.5751   5.3414   5.7966
     6.4410   6.6825   7.4672   8.0196   8.6121   9.1602   9.3643   9.8298
    10.4900  11.0344  11.1178  11.4002  11.5905  12.2733  12.6233  12.8152
    13.1861  13.7939  13.9576  14.4418  15.0313  15.1110  15.8047  16.5203

          k = 0.0000 0.0998 0.0000 (  5031 PWs)   bands (ev):

   -90.5093 -90.2459 -90.1859 -90.1420 -54.0071 -53.9791 -53.9698 -53.7569
   -53.7282 -53.6704 -53.6617 -53.6541 -53.6283 -53.6104 -53.5885 -53.5590
   -14.5699  -5.9999  -4.8016  -4.1949  -4.0971  -3.8083  -3.7076  -3.4438
    -3.3753  -3.2606  -2.9828  -2.8490  -2.7210  -2.5460  -2.4998  -2.3881
    -2.2847  -2.1960  -2.0357  -1.9242  -1.7560  -1.5554  -1.4111  -0.9254
    -0.7222   1.5154   2.0873   3.3057   4.9270   5.9880   6.5420   6.9383
     7.8538   8.1559   8.3646   8.7185   9.0432   9.3978   9.6791  10.6289
    10.6396  10.7802  11.1110  11.2971  11.9670  12.1755  12.4178  13.1993
    13.3800  13.6056  14.0291  14.3336  14.8280  15.0170  15.4038  15.5412

          k = 0.0000-0.1996 0.0000 (  5048 PWs)   bands (ev):

   -90.5064 -90.2429 -90.1831 -90.1393 -54.0166 -54.0004 -53.9756 -53.7789
   -53.7621 -53.6852 -53.6611 -53.6540 -53.6421 -53.6215 -53.5835 -53.5670
   -14.0174  -6.7091  -4.9310  -4.6003  -4.4383  -4.3723  -4.1290  -3.9321
    -3.7416  -3.3983  -2.9350  -2.7454  -2.5510  -2.1955  -1.9101  -1.7045
    -1.6132  -1.5914  -1.3314  -1.1931  -1.1353  -1.1170  -0.9203  -0.5065
     2.1219   2.4669   3.0242   3.3274   4.8285   5.8980   6.3195   6.5569
     8.0185   8.3743   8.7314   9.7442  10.0842  10.4078  10.6879  10.8827
    11.0567  11.0919  11.2250  11.2674  11.5027  12.2158  12.3181  12.4839
    12.5526  12.6998  13.0551  13.1804  13.5381  13.7947  14.2233  14.4201

          k =-0.0864 0.0499 0.0000 (  5024 PWs)   bands (ev):

   -90.5121 -90.2486 -90.1890 -90.1448 -54.0099 -53.9791 -53.9281 -53.7403
   -53.6859 -53.6811 -53.6619 -53.6383 -53.6287 -53.6085 -53.5597 -53.5557
   -15.0084  -5.8741  -5.0763  -4.2032  -4.0064  -3.8804  -3.7600  -3.4197
    -3.2435  -3.1923  -3.0010  -2.8281  -2.6310  -2.4736  -2.4340  -2.3687
    -2.2747  -2.2021  -2.1381  -2.0169  -1.9492  -1.7364  -1.4765  -1.4266
    -1.0747  -0.1372   1.4383   2.3244   3.6949   5.1982   5.9121   6.1979
     6.6683   6.8378   7.1414   7.8885   8.2565   8.3698   9.0810   9.2933
    10.5068  10.8827  11.1986  11.9738  12.2044  12.5978  13.7972  14.0206
    14.5172  14.7012  15.4981  15.6675  15.9984  16.4121  16.5018  17.0798

          k =-0.0864 0.1497 0.0000 (  5031 PWs)   bands (ev):

   -90.5093 -90.2459 -90.1859 -90.1420 -54.0067 -53.9792 -53.9701 -53.7553
   -53.7291 -53.6755 -53.6599 -53.6514 -53.6279 -53.6106 -53.5886 -53.5590
   -14.5699  -6.0023  -4.8026  -4.2159  -3.9959  -3.7516  -3.7167  -3.5596
    -3.3707  -3.2576  -2.9819  -2.8724  -2.6997  -2.5692  -2.4730  -2.3598
    -2.3405  -2.1891  -2.0912  -1.9335  -1.8390  -1.5334  -1.4460  -0.8875
    -0.6101   1.6768   2.0178   3.3977   4.8285   5.9471   6.5075   6.8818
     7.7482   8.0865   8.3327   8.7067   8.9800   9.4116   9.6397  10.5194
    10.6687  10.9563  11.1526  11.4812  11.9692  12.2259  12.3984  13.2811
    13.5155  13.7123  14.1311  14.4026  14.7918  15.0958  15.4169  15.4827

          k =-0.0864-0.1497 0.0000 (  5038 PWs)   bands (ev):

   -90.5064 -90.2429 -90.1831 -90.1393 -54.0144 -53.9993 -53.9709 -53.7675
   -53.7331 -53.7138 -53.6728 -53.6561 -53.6484 -53.6238 -53.5833 -53.5661
   -14.0249  -6.7128  -4.8335  -4.0734  -3.7992  -3.7229  -3.5688  -3.5134
    -3.5043  -3.3161  -2.9852  -2.9482  -2.7891  -2.7300  -2.5762  -2.5195
    -2.3323  -2.1367  -1.8475  -1.7081  -1.4751  -1.2867  -0.7816  -0.4013
     1.6818   1.9796   3.3599   4.3645   5.5365   7.6490   8.0165   8.1505
     8.3045   8.4586   8.8515   9.1434   9.5424   9.5994   9.8526   9.9059
    10.5089  10.8041  10.9905  11.3884  11.7387  11.9323  12.3229  12.3631
    12.8948  13.5664  13.6361  13.7055  14.2498  14.5497  14.7760  14.8183

     the Fermi energy is     1.9156 ev

!    total energy              =   -1205.81343215 Ry
     Harris-Foulkes estimate   =   -1205.81343079 Ry
     estimated scf accuracy    <       0.00000040 Ry

     The total energy is the sum of the following terms:

     one-electron contribution =   -6031.35538364 Ry
     hartree contribution      =    3013.64702784 Ry
     xc contribution           =    -123.21619939 Ry
     ewald contribution        =    1935.11882898 Ry
     electric field correction =       0.00018203 Ry
     smearing contrib. (-TS)   =      -0.00788796 Ry

     convergence has been achieved in   9 iterations

     Forces acting on atoms (Ry/au):


     negative rho (up, down):  2.338E-03 0.000E+00
     atom    1 type  1   force =    -0.00217021    0.00207454   -0.00915912
     atom    2 type  1   force =     0.00284088   -0.00158655   -0.01356335
     atom    3 type  1   force =     0.00570220   -0.00838745    0.02591252
     atom    4 type  1   force =    -0.02413043    0.01877524   -0.06866459
     atom    5 type  2   force =    -0.02979523   -0.05792853    0.06913266
     atom    6 type  3   force =    -0.00507846    0.00711921   -0.01250656
     atom    7 type  3   force =     0.02662677    0.04500396    0.02358114
     atom    8 type  3   force =     0.02600448   -0.00507041   -0.01473270

     Total force =     0.142044     Total SCF correction =     0.002225
 !ASE
     Check: negative starting charge=   -0.002398
     NEW-OLD atomic charge density approx. for the potential
     Check: negative starting charge=   -0.002353

     negative rho (up, down):  2.304E-03 0.000E+00
 
     Adding external electric field

     Computed dipole along edir(3) : 
        Dipole                0.1647 Ry au,          0.4187 Debye
        Dipole field          0.0011 Ry au
 
        Potential amp.       -0.0780 Ry
        Total length         35.2972 bohr
 

     total cpu time spent up to now is       63.2 secs

     per-process dynamical memory:    31.3 Mb

     Self-consistent Calculation

     iteration #  1     ecut=    29.40 Ry     beta=0.10
     Davidson diagonalization with overlap
     ethr =  1.89E-09,  avg # of iterations =  8.7

     negative rho (up, down):  2.295E-03 0.000E+00
 
     Adding external electric field

     Computed dipole along edir(3) : 
        Dipole                0.0839 Ry au,          0.2133 Debye
        Dipole field          0.0006 Ry au
 
        Potential amp.       -0.0397 Ry
        Total length         35.2972 bohr
 

     total cpu time spent up to now is       67.1 secs

     total energy              =   -1205.83162755 Ry
     Harris-Foulkes estimate   =   -1205.83612876 Ry
     estimated scf accuracy    <       0.03245836 Ry

     iteration #  2     ecut=    29.40 Ry     beta=0.10
     Davidson diagonalization with overlap
     ethr =  3.86E-05,  avg # of iterations =  3.0

     negative rho (up, down):  2.289E-03 0.000E+00
 
     Adding external electric field

     Computed dipole along edir(3) : 
        Dipole                0.1158 Ry au,          0.2944 Debye
        Dipole field          0.0008 Ry au
 
        Potential amp.       -0.0549 Ry
        Total length         35.2972 bohr
 

     total cpu time spent up to now is       68.7 secs

     total energy              =   -1205.83217990 Ry
     Harris-Foulkes estimate   =   -1205.83376783 Ry
     estimated scf accuracy    <       0.01984988 Ry

     iteration #  3     ecut=    29.40 Ry     beta=0.10
     Davidson diagonalization with overlap
     ethr =  2.36E-05,  avg # of iterations =  2.2

     negative rho (up, down):  2.337E-03 0.000E+00
 
     Adding external electric field

     Computed dipole along edir(3) : 
        Dipole                0.0873 Ry au,          0.2219 Debye
        Dipole field          0.0006 Ry au
 
        Potential amp.       -0.0413 Ry
        Total length         35.2972 bohr
 

     total cpu time spent up to now is       70.3 secs

     total energy              =   -1205.83045813 Ry
     Harris-Foulkes estimate   =   -1205.83280131 Ry
     estimated scf accuracy    <       0.01009594 Ry

     iteration #  4     ecut=    29.40 Ry     beta=0.10
     Davidson diagonalization with overlap
     ethr =  1.20E-05,  avg # of iterations =  3.7

     negative rho (up, down):  2.501E-03 0.000E+00
 
     Adding external electric field

     Computed dipole along edir(3) : 
        Dipole                0.0904 Ry au,          0.2297 Debye
        Dipole field          0.0006 Ry au
 
        Potential amp.       -0.0428 Ry
        Total length         35.2972 bohr
 

     total cpu time spent up to now is       72.0 secs

     total energy              =   -1205.83069137 Ry
     Harris-Foulkes estimate   =   -1205.83111310 Ry
     estimated scf accuracy    <       0.00283242 Ry

     iteration #  5     ecut=    29.40 Ry     beta=0.10
     Davidson diagonalization with overlap
     ethr =  3.37E-06,  avg # of iterations =  2.7

     negative rho (up, down):  2.590E-03 0.000E+00
 
     Adding external electric field

     Computed dipole along edir(3) : 
        Dipole                0.0942 Ry au,          0.2395 Debye
        Dipole field          0.0006 Ry au
 
        Potential amp.       -0.0446 Ry
        Total length         35.2972 bohr
 

     total cpu time spent up to now is       73.6 secs

     total energy              =   -1205.83086460 Ry
     Harris-Foulkes estimate   =   -1205.83093164 Ry
     estimated scf accuracy    <       0.00076760 Ry

     iteration #  6     ecut=    29.40 Ry     beta=0.10
     Davidson diagonalization with overlap
     ethr =  9.14E-07,  avg # of iterations =  2.8

     negative rho (up, down):  2.633E-03 0.000E+00
 
     Adding external electric field

     Computed dipole along edir(3) : 
        Dipole                0.1144 Ry au,          0.2907 Debye
        Dipole field          0.0008 Ry au
 
        Potential amp.       -0.0542 Ry
        Total length         35.2972 bohr
 

     total cpu time spent up to now is       75.1 secs

     total energy              =   -1205.83088276 Ry
     Harris-Foulkes estimate   =   -1205.83095884 Ry
     estimated scf accuracy    <       0.00100735 Ry

     iteration #  7     ecut=    29.40 Ry     beta=0.10
     Davidson diagonalization with overlap
     ethr =  9.14E-07,  avg # of iterations =  4.5

     negative rho (up, down):  2.610E-03 0.000E+00
 
     Adding external electric field

     Computed dipole along edir(3) : 
        Dipole                0.1161 Ry au,          0.2952 Debye
        Dipole field          0.0008 Ry au
 
        Potential amp.       -0.0550 Ry
        Total length         35.2972 bohr
 

     total cpu time spent up to now is       77.0 secs

     total energy              =   -1205.83093382 Ry
     Harris-Foulkes estimate   =   -1205.83093491 Ry
     estimated scf accuracy    <       0.00005317 Ry

     iteration #  8     ecut=    29.40 Ry     beta=0.10
     Davidson diagonalization with overlap
     ethr =  6.33E-08,  avg # of iterations =  2.0

     negative rho (up, down):  2.560E-03 0.000E+00
 
     Adding external electric field

     Computed dipole along edir(3) : 
        Dipole                0.1164 Ry au,          0.2957 Debye
        Dipole field          0.0008 Ry au
 
        Potential amp.       -0.0551 Ry
        Total length         35.2972 bohr
 

     total cpu time spent up to now is       78.4 secs

     total energy              =   -1205.83094211 Ry
     Harris-Foulkes estimate   =   -1205.83093870 Ry
     estimated scf accuracy    <       0.00000796 Ry

     iteration #  9     ecut=    29.40 Ry     beta=0.10
     Davidson diagonalization with overlap
     ethr =  9.48E-09,  avg # of iterations =  1.0

     negative rho (up, down):  2.526E-03 0.000E+00
 
     Adding external electric field

     Computed dipole along edir(3) : 
        Dipole                0.1160 Ry au,          0.2947 Debye
        Dipole field          0.0008 Ry au
 
        Potential amp.       -0.0549 Ry
        Total length         35.2972 bohr
 

     total cpu time spent up to now is       79.7 secs

     total energy              =   -1205.83094427 Ry
     Harris-Foulkes estimate   =   -1205.83094290 Ry
     estimated scf accuracy    <       0.00000418 Ry

     iteration # 10     ecut=    29.40 Ry     beta=0.10
     Davidson diagonalization with overlap
     ethr =  4.98E-09,  avg # of iterations =  2.0

     negative rho (up, down):  2.329E-03 0.000E+00
 
     Adding external electric field

     Computed dipole along edir(3) : 
        Dipole                0.1126 Ry au,          0.2862 Debye
        Dipole field          0.0008 Ry au
 
        Potential amp.       -0.0533 Ry
        Total length         35.2972 bohr
 

     total cpu time spent up to now is       81.3 secs

     End of self-consistent calculation

          k = 0.0000 0.0000 0.0000 (  5071 PWs)   bands (ev):

   -90.6614 -90.3912 -90.3531 -90.3014 -54.1797 -54.1076 -54.0682 -53.9237
   -53.8382 -53.8061 -53.7991 -53.7903 -53.7869 -53.7616 -53.7212 -53.7128
   -14.7482  -6.0409  -5.4970  -4.7341  -4.6588  -4.4954  -4.3201  -3.6259
    -3.3036  -3.1637  -3.1348  -3.0411  -3.0370  -2.8815  -2.7650  -2.2166
    -2.1604  -1.9422  -1.8578  -1.7341  -1.6648  -1.6240  -1.3890  -1.2900
     0.0810   0.4814   1.4353   2.4960   3.2198   4.7411   5.3447   5.8170
     6.3450   6.6917   7.1853   7.9098   8.6923   9.2743   9.6589   9.9381
    10.6695  10.8886  11.2303  11.5650  11.7535  12.2542  12.6044  12.8527
    13.1627  13.5872  13.9307  14.5255  14.8099  15.2383  15.7973  16.3527

          k = 0.0000 0.0998 0.0000 (  5031 PWs)   bands (ev):

   -90.6585 -90.3877 -90.3509 -90.2987 -54.1727 -54.1165 -54.0937 -53.9057
   -53.8724 -53.8361 -53.8169 -53.8002 -53.7836 -53.7699 -53.7488 -53.7132
   -14.3039  -6.2241  -4.9700  -4.2161  -4.0783  -3.9300  -3.8151  -3.6009
    -3.5149  -3.2742  -3.1221  -2.9701  -2.9061  -2.6916  -2.6404  -2.5574
    -2.4533  -2.3433  -2.1601  -2.0684  -1.9259  -1.7069  -1.5690  -1.0307
    -0.6029   1.3139   1.8565   3.3592   4.7197   6.0858   6.4952   7.0068
     7.7080   8.0779   8.2068   8.6867   8.9376   9.4464   9.6970  10.4396
    10.6302  10.8060  11.0523  11.3361  11.8646  12.3098  12.4780  13.0874
    13.4101  13.6795  13.9718  14.2776  14.8172  15.0400  15.5040  15.5712

          k = 0.0000-0.1996 0.0000 (  5048 PWs)   bands (ev):

   -90.6556 -90.3847 -90.3482 -90.2959 -54.1696 -54.1573 -54.0928 -53.9269
   -53.9150 -53.8407 -53.8221 -53.8041 -53.7965 -53.7743 -53.7470 -53.7182
   -13.7594  -6.9768  -4.9296  -4.5919  -4.5249  -4.4225  -4.2490  -4.1021
    -3.8475  -3.4296  -2.9351  -2.9236  -2.7034  -2.2701  -2.0852  -1.8409
    -1.7705  -1.7409  -1.4771  -1.3459  -1.2938  -1.2688  -0.9153  -0.6215
     1.9275   2.2534   2.8696   3.1239   4.7138   5.6940   6.1559   6.4107
     8.0272   8.1772   8.6170   9.9906  10.1178  10.4188  10.6762  10.7709
    11.0106  11.1052  11.3324  11.3993  11.5437  12.0757  12.2588  12.4821
    12.5974  12.6910  13.1305  13.1655  13.4807  13.6542  14.0613  14.3967

          k =-0.0864 0.0499 0.0000 (  5024 PWs)   bands (ev):

   -90.6613 -90.3903 -90.3540 -90.3015 -54.1742 -54.1032 -54.0666 -53.8821
   -53.8442 -53.8317 -53.8056 -53.7963 -53.7914 -53.7663 -53.7210 -53.7109
   -14.7365  -5.8962  -5.2206  -4.3173  -4.1793  -4.0343  -3.9357  -3.5711
    -3.3872  -3.3564  -3.1420  -2.8176  -2.7632  -2.6580  -2.5885  -2.5212
    -2.4302  -2.3642  -2.2823  -2.1415  -2.0853  -1.9409  -1.7348  -1.5854
    -1.2115  -0.0023   1.2564   1.9924   3.7900   5.1024   5.9263   6.3457
     6.6857   6.9265   7.2105   7.9351   8.2194   8.6057   9.1182   9.9404
    10.5871  10.8895  11.2047  11.8034  12.1206  12.7479  13.6966  14.0421
    14.4444  14.4904  15.3211  15.4623  15.8631  16.2790  16.3361  16.8199

          k =-0.0864 0.1497 0.0000 (  5031 PWs)   bands (ev):

   -90.6585 -90.3877 -90.3509 -90.2987 -54.1726 -54.1190 -54.0911 -53.9021
   -53.8754 -53.8414 -53.8124 -53.8000 -53.7835 -53.7699 -53.7488 -53.7133
   -14.3041  -6.2240  -4.9937  -4.2249  -4.0201  -3.8814  -3.7865  -3.6869
    -3.4811  -3.2621  -3.1263  -3.0188  -2.8569  -2.7135  -2.6253  -2.5306
    -2.4968  -2.3376  -2.1981  -2.0856  -1.9892  -1.6954  -1.5894  -1.0315
    -0.5326   1.4399   1.7829   3.3866   4.6481   6.1078   6.4839   6.9466
     7.7176   8.0560   8.2043   8.6723   8.8611   9.4232   9.7169  10.4939
    10.6738  10.8363  11.0582  11.4380  11.8210  12.0791  12.7601  13.0621
    13.5604  13.7611  14.0706  14.4554  14.7900  14.8975  15.4547  15.5547

          k =-0.0864-0.1497 0.0000 (  5038 PWs)   bands (ev):

   -90.6556 -90.3847 -90.3482 -90.2960 -54.1667 -54.1547 -54.0901 -53.9132
   -53.8814 -53.8745 -53.8360 -53.8104 -53.7994 -53.7754 -53.7468 -53.7174
   -13.7664  -6.9793  -4.5831  -4.0748  -3.9401  -3.8691  -3.7178  -3.6744
    -3.6716  -3.3146  -3.1248  -3.0333  -2.9378  -2.8665  -2.7111  -2.6677
    -2.5092  -2.2604  -2.0206  -1.8754  -1.6402  -1.4357  -0.8382  -0.4454
     1.5671   1.7615   3.3310   4.1347   5.4543   7.6399   7.7643   8.0113
     8.0837   8.5628   8.8209   9.1090   9.4944   9.5752   9.8431   9.9870
    10.4216  10.7327  10.9053  11.2490  11.5408  11.7993  12.0881  12.3943
    12.8452  13.3471  13.6708  13.8107  14.1777  14.5395  14.7267  14.8746

     the Fermi energy is     1.7009 ev

!    total energy              =   -1205.83095656 Ry
     Harris-Foulkes estimate   =   -1205.83094998 Ry
     estimated scf accuracy    <       0.00000087 Ry

     The total energy is the sum of the following terms:

     one-electron contribution =   -5981.14377759 Ry
     hartree contribution      =    2988.19369922 Ry
     xc contribution           =    -123.18998223 Ry
     ewald contribution        =    1910.31795794 Ry
     electric field correction =       0.00008505 Ry
     smearing contrib. (-TS)   =      -0.00893895 Ry

     convergence has been achieved in  10 iterations

     Forces acting on atoms (Ry/au):


     negative rho (up, down):  2.329E-03 0.000E+00
     atom    1 type  1   force =    -0.00222350    0.00195274   -0.00964948
     atom    2 type  1   force =     0.00289465   -0.00175658   -0.01482641
     atom    3 type  1   force =     0.00505626   -0.00837829    0.02331589
     atom    4 type  1   force =    -0.00512592    0.01463525   -0.02193083
     atom    5 type  2   force =    -0.00923892    0.02296529   -0.02289312
     atom    6 type  3   force =    -0.00894939   -0.02703189   -0.01421138
     atom    7 type  3   force =    -0.00559674    0.00683310    0.04953164
     atom    8 type  3   force =     0.02318357   -0.00921962    0.01066369

     Total force =     0.084328     Total SCF correction =     0.006679
 !ASE
     Check: negative starting charge=   -0.002353
     NEW-OLD atomic charge density approx. for the potential
     Check: negative starting charge=   -0.002352

     negative rho (up, down):  2.331E-03 0.000E+00
 
     Adding external electric field

     Computed dipole along edir(3) : 
        Dipole                0.1126 Ry au,          0.2862 Debye
        Dipole field          0.0008 Ry au
 
        Potential amp.       -0.0533 Ry
        Total length         35.2972 bohr
 

     total cpu time spent up to now is       82.5 secs

     per-process dynamical memory:    31.3 Mb

     Self-consistent Calculation

     iteration #  1     ecut=    29.40 Ry     beta=0.10
     Davidson diagonalization with overlap
     ethr =  4.98E-09,  avg # of iterations =  5.2

     negative rho (up, down):  2.331E-03 0.000E+00
 
     Adding external electric field

     Computed dipole along edir(3) : 
        Dipole                0.0873 Ry au,          0.2219 Debye
        Dipole field          0.0006 Ry au
 
        Potential amp.       -0.0413 Ry
        Total length         35.2972 bohr
 

     total cpu time spent up to now is       85.6 secs

     total energy              =   -1205.83994768 Ry
     Harris-Foulkes estimate   =   -1205.84054373 Ry
     estimated scf accuracy    <       0.00446964 Ry

     iteration #  2     ecut=    29.40 Ry     beta=0.10
     Davidson diagonalization with overlap
     ethr =  5.32E-06,  avg # of iterations =  3.3

     negative rho (up, down):  2.331E-03 0.000E+00
 
     Adding external electric field

     Computed dipole along edir(3) : 
        Dipole                0.1017 Ry au,          0.2584 Debye
        Dipole field          0.0007 Ry au
 
        Potential amp.       -0.0481 Ry
        Total length         35.2972 bohr
 

     total cpu time spent up to now is       87.2 secs

     total energy              =   -1205.84007566 Ry
     Harris-Foulkes estimate   =   -1205.84024988 Ry
     estimated scf accuracy    <       0.00270052 Ry

     iteration #  3     ecut=    29.40 Ry     beta=0.10
     Davidson diagonalization with overlap
     ethr =  3.21E-06,  avg # of iterations =  2.7

     negative rho (up, down):  2.337E-03 0.000E+00
 
     Adding external electric field

     Computed dipole along edir(3) : 
        Dipole                0.1004 Ry au,          0.2552 Debye
        Dipole field          0.0007 Ry au
 
        Potential amp.       -0.0476 Ry
        Total length         35.2972 bohr
 

     total cpu time spent up to now is       88.8 secs

     total energy              =   -1205.84001842 Ry
     Harris-Foulkes estimate   =   -1205.84016083 Ry
     estimated scf accuracy    <       0.00130638 Ry

     iteration #  4     ecut=    29.40 Ry     beta=0.10
     Davidson diagonalization with overlap
     ethr =  1.56E-06,  avg # of iterations =  2.0

     negative rho (up, down):  2.365E-03 0.000E+00
 
     Adding external electric field

     Computed dipole along edir(3) : 
        Dipole                0.1047 Ry au,          0.2661 Debye
        Dipole field          0.0007 Ry au
 
        Potential amp.       -0.0496 Ry
        Total length         35.2972 bohr
 

     total cpu time spent up to now is       90.2 secs

     total energy              =   -1205.84006782 Ry
     Harris-Foulkes estimate   =   -1205.84006720 Ry
     estimated scf accuracy    <       0.00051686 Ry

     iteration #  5     ecut=    29.40 Ry     beta=0.10
     Davidson diagonalization with overlap
     ethr =  6.15E-07,  avg # of iterations =  2.0

     negative rho (up, down):  2.382E-03 0.000E+00
 
     Adding external electric field

     Computed dipole along edir(3) : 
        Dipole                0.1082 Ry au,          0.2751 Debye
        Dipole field          0.0007 Ry au
 
        Potential amp.       -0.0513 Ry
        Total length         35.2972 bohr
 

     total cpu time spent up to now is       91.7 secs

     total energy              =   -1205.84012421 Ry
     Harris-Foulkes estimate   =   -1205.84010412 Ry
     estimated scf accuracy    <       0.00009932 Ry

     iteration #  6     ecut=    29.40 Ry     beta=0.10
     Davidson diagonalization with overlap
     ethr =  1.18E-07,  avg # of iterations =  2.7

     negative rho (up, down):  2.379E-03 0.000E+00
 
     Adding external electric field

     Computed dipole along edir(3) : 
        Dipole                0.1121 Ry au,          0.2849 Debye
        Dipole field          0.0008 Ry au
 
        Potential amp.       -0.0531 Ry
        Total length         35.2972 bohr
 

     total cpu time spent up to now is       93.2 secs

     total energy              =   -1205.84013037 Ry
     Harris-Foulkes estimate   =   -1205.84012773 Ry
     estimated scf accuracy    <       0.00004278 Ry

     iteration #  7     ecut=    29.40 Ry     beta=0.10
     Davidson diagonalization with overlap
     ethr =  5.09E-08,  avg # of iterations =  1.8

     negative rho (up, down):  2.376E-03 0.000E+00
 
     Adding external electric field

     Computed dipole along edir(3) : 
        Dipole                0.1121 Ry au,          0.2849 Debye
        Dipole field          0.0008 Ry au
 
        Potential amp.       -0.0531 Ry
        Total length         35.2972 bohr
 

     total cpu time spent up to now is       94.7 secs

     total energy              =   -1205.84013602 Ry
     Harris-Foulkes estimate   =   -1205.84013566 Ry
     estimated scf accuracy    <       0.00001660 Ry

     iteration #  8     ecut=    29.40 Ry     beta=0.10
     Davidson diagonalization with overlap
     ethr =  1.98E-08,  avg # of iterations =  1.8

     negative rho (up, down):  2.369E-03 0.000E+00
 
     Adding external electric field

     Computed dipole along edir(3) : 
        Dipole                0.1118 Ry au,          0.2841 Debye
        Dipole field          0.0007 Ry au
 
        Potential amp.       -0.0529 Ry
        Total length         35.2972 bohr
 

     total cpu time spent up to now is       96.1 secs

     total energy              =   -1205.84013757 Ry
     Harris-Foulkes estimate   =   -1205.84013758 Ry
     estimated scf accuracy    <       0.00000237 Ry

     iteration #  9     ecut=    29.40 Ry     beta=0.10
     Davidson diagonalization with overlap
     ethr =  2.82E-09,  avg # of iterations =  1.3

     negative rho (up, down):  2.336E-03 0.000E+00
 
     Adding external electric field

     Computed dipole along edir(3) : 
        Dipole                0.1083 Ry au,          0.2752 Debye
        Dipole field          0.0007 Ry au
 
        Potential amp.       -0.0513 Ry
        Total length         35.2972 bohr
 

     total cpu time spent up to now is       97.4 secs

     End of self-consistent calculation

          k = 0.0000 0.0000 0.0000 (  5071 PWs)   bands (ev):

   -90.6931 -90.4053 -90.3748 -90.3066 -54.2213 -54.1285 -54.0961 -53.9400
   -53.8539 -53.8230 -53.8151 -53.8110 -53.7985 -53.7743 -53.7284 -53.7204
   -14.8223  -5.9301  -5.3637  -4.7578  -4.6727  -4.5088  -4.3356  -3.6560
    -3.3154  -3.1820  -3.1507  -3.0577  -3.0549  -2.9057  -2.7790  -2.2365
    -2.1776  -1.9659  -1.8666  -1.7581  -1.6830  -1.6373  -1.4042  -1.3069
     0.0802   0.3981   1.4410   2.4969   3.2280   4.7646   5.3387   5.8600
     6.3486   6.6850   7.1386   7.9811   8.6827   9.2352   9.6573  10.0099
    10.7116  10.8678  11.2577  11.5801  11.7332  12.2690  12.6192  12.8700
    13.1922  13.5507  13.9296  14.5163  14.8071  15.2577  15.8398  16.4054

          k = 0.0000 0.0998 0.0000 (  5031 PWs)   bands (ev):

   -90.6902 -90.4017 -90.3727 -90.3038 -54.2146 -54.1408 -54.1184 -53.9220
   -53.8868 -53.8577 -53.8359 -53.8122 -53.7963 -53.7802 -53.7603 -53.7199
   -14.3865  -5.8950  -5.0541  -4.2346  -4.0938  -3.9502  -3.8360  -3.6178
    -3.5392  -3.2834  -3.1356  -2.9888  -2.9273  -2.7078  -2.6616  -2.5886
    -2.4760  -2.3587  -2.1785  -2.0818  -1.9476  -1.7228  -1.5857  -1.0976
    -0.6398   1.2896   1.8263   3.3728   4.7221   6.1390   6.5119   7.0368
     7.7622   8.0819   8.1902   8.6905   8.9697   9.4940   9.7336  10.5222
    10.6152  10.8035  11.1084  11.3077  11.8774  12.3552  12.4299  13.2391
    13.4427  13.6887  14.0055  14.3259  14.7939  15.0270  15.5070  15.5741

          k = 0.0000-0.1996 0.0000 (  5048 PWs)   bands (ev):

   -90.6873 -90.3985 -90.3701 -90.3011 -54.2116 -54.1828 -54.1159 -53.9429
   -53.9330 -53.8578 -53.8420 -53.8139 -53.8085 -53.7818 -53.7669 -53.7225
   -13.8562  -6.6729  -5.0019  -4.6093  -4.5407  -4.4355  -4.2699  -4.1204
    -3.8807  -3.4477  -2.9980  -2.9499  -2.7163  -2.2812  -2.1012  -1.8573
    -1.7840  -1.7509  -1.4981  -1.3605  -1.3138  -1.2815  -1.0270  -0.6108
     1.9013   2.2241   2.8490   3.1027   4.6995   5.8047   6.1379   6.3924
     8.1432   8.1988   8.9000  10.0012  10.1093  10.3906  10.6784  10.7708
    11.0132  11.1267  11.3587  11.4086  11.5519  12.1502  12.2878  12.4518
    12.6022  12.7008  13.1703  13.1806  13.5196  13.6563  14.1089  14.3753

          k =-0.0864 0.0499 0.0000 (  5024 PWs)   bands (ev):

   -90.6930 -90.4042 -90.3759 -90.3066 -54.2163 -54.1243 -54.0946 -53.8956
   -53.8655 -53.8464 -53.8183 -53.8165 -53.8046 -53.7798 -53.7283 -53.7187
   -14.8117  -5.5936  -5.2846  -4.3336  -4.2004  -4.0483  -3.9450  -3.5869
    -3.4058  -3.3694  -3.1542  -2.8359  -2.7714  -2.6787  -2.6105  -2.5372
    -2.4496  -2.3831  -2.2941  -2.1601  -2.1009  -1.9742  -1.7528  -1.5987
    -1.2386  -0.0576   1.2462   1.9374   3.8101   5.1301   5.9589   6.3713
     6.6973   6.9335   7.2633   7.9659   8.2121   8.5897   9.2168   9.8568
    10.5942  10.8798  11.2483  11.7794  12.1033  12.8002  13.6915  14.0534
    14.4577  14.5320  15.3055  15.7676  15.8362  16.2692  16.2942  16.8157

          k =-0.0864 0.1497 0.0000 (  5031 PWs)   bands (ev):

   -90.6902 -90.4017 -90.3727 -90.3038 -54.2147 -54.1425 -54.1164 -53.9180
   -53.8903 -53.8630 -53.8312 -53.8121 -53.7964 -53.7801 -53.7604 -53.7199
   -14.3867  -5.8954  -5.0803  -4.2378  -4.0376  -3.8995  -3.8141  -3.6999
    -3.4976  -3.2800  -3.1417  -3.0363  -2.8743  -2.7341  -2.6398  -2.5780
    -2.5123  -2.3542  -2.2135  -2.1003  -2.0054  -1.7127  -1.6054  -1.0689
    -0.6048   1.4159   1.7569   3.3953   4.6536   6.1476   6.5088   6.9891
     7.7525   8.0526   8.1988   8.6985   8.9130   9.4396   9.7486  10.5068
    10.7139  10.8619  11.0786  11.4638  11.8733  12.1634  12.6727  13.1429
    13.6059  13.7819  14.0851  14.4133  14.7855  14.9035  15.4744  15.5590

          k =-0.0864-0.1497 0.0000 (  5038 PWs)   bands (ev):

   -90.6874 -90.3985 -90.3701 -90.3011 -54.2088 -54.1805 -54.1133 -53.9280
   -53.9032 -53.8881 -53.8572 -53.8195 -53.8107 -53.7833 -53.7669 -53.7218
   -13.8625  -6.6757  -4.6877  -4.0882  -3.9629  -3.8833  -3.7394  -3.6915
    -3.6893  -3.3459  -3.1503  -3.0418  -2.9472  -2.8812  -2.7361  -2.6862
    -2.5429  -2.2784  -2.0358  -1.8883  -1.6618  -1.4462  -0.9543  -0.4343
     1.5631   1.7332   3.3362   4.1208   5.4578   7.7585   7.9477   8.0228
     8.1221   8.5858   8.8326   9.0935   9.5015   9.6322   9.8551  10.0077
    10.4574  10.7368  10.8983  11.2383  11.5874  11.8231  12.0522  12.3987
    12.8771  13.3059  13.6870  13.8435  14.1730  14.5892  14.6896  14.8786

     the Fermi energy is     1.6770 ev

!    total energy              =   -1205.84013970 Ry
     Harris-Foulkes estimate   =   -1205.84014281 Ry
     estimated scf accuracy    <       0.00000061 Ry

     The total energy is the sum of the following terms:

     one-electron contribution =   -5971.94309511 Ry
     hartree contribution      =    2983.56901693 Ry
     xc contribution           =    -123.21261630 Ry
     ewald contribution        =    1905.75577424 Ry
     electric field correction =       0.00007865 Ry
     smearing contrib. (-TS)   =      -0.00929812 Ry

     convergence has been achieved in   9 iterations

     Forces acting on atoms (Ry/au):


     negative rho (up, down):  2.336E-03 0.000E+00
     atom    1 type  1   force =    -0.00218832    0.00188222   -0.00961577
     atom    2 type  1   force =     0.00293292   -0.00175794   -0.01553390
     atom    3 type  1   force =     0.00489894   -0.00776631    0.02299877
     atom    4 type  1   force =    -0.00191080    0.00991774   -0.01525909
     atom    5 type  2   force =    -0.00468961   -0.03501379   -0.05644434
     atom    6 type  3   force =    -0.02110996    0.01764674    0.03539856
     atom    7 type  3   force =     0.00170204    0.02281528    0.02169922
     atom    8 type  3   force =     0.02036480   -0.00772393    0.01675655

     Total force =     0.097444     Total SCF correction =     0.002674
 !ASE
     Check: negative starting charge=   -0.002352
     NEW-OLD atomic charge density approx. for the potential
     Check: negative starting charge=   -0.002332

     negative rho (up, down):  2.309E-03 0.000E+00
 
     Adding external electric field

     Computed dipole along edir(3) : 
        Dipole                0.1083 Ry au,          0.2752 Debye
        Dipole field          0.0007 Ry au
 
        Potential amp.       -0.0513 Ry
        Total length         35.2972 bohr
 

     total cpu time spent up to now is       98.6 secs

     per-process dynamical memory:    31.3 Mb

     Self-consistent Calculation

     iteration #  1     ecut=    29.40 Ry     beta=0.10
     Davidson diagonalization with overlap
     ethr =  2.82E-09,  avg # of iterations = 10.0

     negative rho (up, down):  2.306E-03 0.000E+00
 
     Adding external electric field

     Computed dipole along edir(3) : 
        Dipole                0.1391 Ry au,          0.3536 Debye
        Dipole field          0.0009 Ry au
 
        Potential amp.       -0.0659 Ry
        Total length         35.2972 bohr
 

     total cpu time spent up to now is      102.3 secs

     total energy              =   -1205.83774084 Ry
     Harris-Foulkes estimate   =   -1205.83893383 Ry
     estimated scf accuracy    <       0.01039826 Ry

     iteration #  2     ecut=    29.40 Ry     beta=0.10
     Davidson diagonalization with overlap
     ethr =  1.24E-05,  avg # of iterations =  2.7

     negative rho (up, down):  2.303E-03 0.000E+00
 
     Adding external electric field

     Computed dipole along edir(3) : 
        Dipole                0.1163 Ry au,          0.2956 Debye
        Dipole field          0.0008 Ry au
 
        Potential amp.       -0.0551 Ry
        Total length         35.2972 bohr
 

     total cpu time spent up to now is      103.9 secs

     total energy              =   -1205.83794269 Ry
     Harris-Foulkes estimate   =   -1205.83844447 Ry
     estimated scf accuracy    <       0.00641991 Ry

     iteration #  3     ecut=    29.40 Ry     beta=0.10
     Davidson diagonalization with overlap
     ethr =  7.64E-06,  avg # of iterations =  2.7

     negative rho (up, down):  2.309E-03 0.000E+00
 
     Adding external electric field

     Computed dipole along edir(3) : 
        Dipole                0.1129 Ry au,          0.2870 Debye
        Dipole field          0.0008 Ry au
 
        Potential amp.       -0.0535 Ry
        Total length         35.2972 bohr
 

     total cpu time spent up to now is      105.5 secs

     total energy              =   -1205.83765306 Ry
     Harris-Foulkes estimate   =   -1205.83812714 Ry
     estimated scf accuracy    <       0.00336413 Ry

     iteration #  4     ecut=    29.40 Ry     beta=0.10
     Davidson diagonalization with overlap
     ethr =  4.00E-06,  avg # of iterations =  2.0

     negative rho (up, down):  2.346E-03 0.000E+00
 
     Adding external electric field

     Computed dipole along edir(3) : 
        Dipole                0.1153 Ry au,          0.2931 Debye
        Dipole field          0.0008 Ry au
 
        Potential amp.       -0.0546 Ry
        Total length         35.2972 bohr
 

     total cpu time spent up to now is      106.9 secs

     total energy              =   -1205.83773870 Ry
     Harris-Foulkes estimate   =   -1205.83779543 Ry
     estimated scf accuracy    <       0.00117118 Ry

     iteration #  5     ecut=    29.40 Ry     beta=0.10
     Davidson diagonalization with overlap
     ethr =  1.39E-06,  avg # of iterations =  2.7

     negative rho (up, down):  2.374E-03 0.000E+00
 
     Adding external electric field

     Computed dipole along edir(3) : 
        Dipole                0.1183 Ry au,          0.3006 Debye
        Dipole field          0.0008 Ry au
 
        Potential amp.       -0.0560 Ry
        Total length         35.2972 bohr
 

     total cpu time spent up to now is      108.5 secs

     total energy              =   -1205.83785643 Ry
     Harris-Foulkes estimate   =   -1205.83782471 Ry
     estimated scf accuracy    <       0.00024895 Ry

     iteration #  6     ecut=    29.40 Ry     beta=0.10
     Davidson diagonalization with overlap
     ethr =  2.96E-07,  avg # of iterations =  2.0

     negative rho (up, down):  2.373E-03 0.000E+00
 
     Adding external electric field

     Computed dipole along edir(3) : 
        Dipole                0.1236 Ry au,          0.3141 Debye
        Dipole field          0.0008 Ry au
 
        Potential amp.       -0.0585 Ry
        Total length         35.2972 bohr
 

     total cpu time spent up to now is      109.9 secs

     total energy              =   -1205.83788212 Ry
     Harris-Foulkes estimate   =   -1205.83786949 Ry
     estimated scf accuracy    <       0.00007964 Ry

     iteration #  7     ecut=    29.40 Ry     beta=0.10
     Davidson diagonalization with overlap
     ethr =  9.48E-08,  avg # of iterations =  1.8

     negative rho (up, down):  2.369E-03 0.000E+00
 
     Adding external electric field

[...]

     Computed dipole along edir(3) : 
        Dipole                0.0097 Ry au,          0.0247 Debye
        Dipole field          0.0001 Ry au
 
        Potential amp.       -0.0046 Ry
        Total length         35.2972 bohr
 

     total cpu time spent up to now is      654.7 secs

     total energy              =   -1205.86509494 Ry
     Harris-Foulkes estimate   =   -1205.86509481 Ry
     estimated scf accuracy    <       0.00000135 Ry

     iteration #  6     ecut=    29.40 Ry     beta=0.10
     Davidson diagonalization with overlap
     ethr =  1.60E-09,  avg # of iterations =  2.0

     negative rho (up, down):  2.407E-03 0.000E+00
 
     Adding external electric field

     Computed dipole along edir(3) : 
        Dipole                0.0090 Ry au,          0.0229 Debye
        Dipole field          0.0001 Ry au
 
        Potential amp.       -0.0043 Ry
        Total length         35.2972 bohr
 

     total cpu time spent up to now is      656.2 secs

     End of self-consistent calculation

          k = 0.0000 0.0000 0.0000 (  5071 PWs)   bands (ev):

   -90.6851 -90.5631 -90.5261 -90.5095 -54.2082 -54.1320 -54.0849 -54.0696
   -54.0281 -54.0068 -53.9913 -53.9664 -53.9507 -53.9348 -53.9324 -53.9125
   -14.7911  -6.3348  -5.1639  -4.8125  -4.6985  -4.5657  -4.3605  -3.6960
    -3.4047  -3.3239  -3.3056  -3.1901  -3.1839  -2.9754  -2.9130  -2.3520
    -2.3200  -2.2278  -1.9717  -1.9342  -1.8549  -1.8062  -1.5518  -1.4393
     0.0065   0.3057   1.7356   2.0443   2.8186   4.9769   5.2942   5.5866
     6.1886   6.6803   7.1182   8.5624   8.7105   9.5269   9.8666  10.1949
    10.6210  10.8851  11.2904  11.5901  11.7492  12.4513  12.6288  12.8714
    13.1436  13.3216  13.9541  14.2736  15.1529  15.3676  15.5852  16.4197

          k = 0.0000 0.0998 0.0000 (  5031 PWs)   bands (ev):

   -90.6820 -90.5604 -90.5219 -90.5082 -54.2021 -54.1280 -54.1121 -54.0527
   -54.0466 -54.0344 -54.0025 -53.9933 -53.9787 -53.9597 -53.9331 -53.9093
   -14.3647  -5.7190  -5.2715  -4.3147  -4.1550  -4.0529  -3.9291  -3.7739
    -3.5859  -3.4471  -3.3171  -3.0914  -2.9764  -2.8271  -2.8090  -2.6907
    -2.6213  -2.5047  -2.3369  -2.2498  -2.1470  -1.8643  -1.7619  -1.1586
    -0.7999   1.1298   1.6855   3.2746   4.6615   6.3540   6.6404   7.0322
     7.7689   7.9969   8.0584   8.7655   9.0930   9.6843   9.8517  10.3280
    10.5259  11.0001  11.1544  11.3554  11.6971  12.1948  12.3871  12.9622
    13.4695  13.7992  14.1187  14.4277  14.7195  15.0976  15.5240  15.6608

          k = 0.0000-0.1996 0.0000 (  5048 PWs)   bands (ev):

   -90.6790 -90.5575 -90.5186 -90.5059 -54.2112 -54.1657 -54.1175 -54.0758
   -54.0595 -54.0530 -54.0310 -53.9833 -53.9779 -53.9681 -53.9372 -53.9075
   -13.8502  -6.2976  -5.6080  -4.6829  -4.6290  -4.4800  -4.3766  -4.2283
    -3.7812  -3.5036  -3.0860  -2.9368  -2.8501  -2.6515  -2.2820  -1.9797
    -1.9559  -1.9446  -1.5641  -1.5422  -1.4400  -1.4354  -1.2113  -0.7093
     1.5300   2.0881   2.6608   2.9095   5.0547   5.5492   6.0118   6.6819
     8.1942   8.6618   9.1000   9.6414   9.9600  10.5027  10.6034  10.8354
    11.1899  11.2275  11.3575  11.5215  11.7105  12.0916  12.2544  12.4469
    12.5918  12.7333  13.2337  13.3019  13.3480  13.5832  13.8524  14.5093

          k =-0.0864 0.0499 0.0000 (  5024 PWs)   bands (ev):

   -90.6848 -90.5634 -90.5240 -90.5116 -54.1931 -54.1187 -54.0803 -54.0524
   -54.0236 -54.0108 -54.0044 -53.9900 -53.9550 -53.9445 -53.9314 -53.9116
   -14.7813  -5.8501  -5.0305  -4.3653  -4.2269  -4.1722  -4.1308  -3.7402
    -3.6111  -3.3920  -3.3482  -2.9258  -2.8421  -2.7846  -2.7463  -2.6676
    -2.5669  -2.5487  -2.4750  -2.2740  -2.2385  -2.1091  -1.8765  -1.8072
    -1.1248  -0.4420   0.8990   1.8622   3.5293   5.3031   6.0121   6.7237
     6.7511   6.9573   7.4577   8.2358   8.3054   8.7402   9.3945  10.1175
    10.5788  10.8668  11.3554  11.6118  11.9655  12.4834  13.3548  13.9648
    14.2869  14.6364  14.7492  15.4837  15.8587  16.0871  16.7883  16.9121

          k =-0.0864 0.1497 0.0000 (  5031 PWs)   bands (ev):

   -90.6820 -90.5604 -90.5219 -90.5082 -54.1959 -54.1411 -54.1066 -54.0596
   -54.0414 -54.0277 -54.0057 -53.9956 -53.9788 -53.9579 -53.9330 -53.9093
   -14.3650  -5.6544  -5.2119  -4.3344  -4.1673  -4.0899  -3.9127  -3.8408
    -3.6713  -3.4626  -3.2729  -3.1411  -2.9573  -2.8389  -2.7958  -2.7108
    -2.6297  -2.5011  -2.3106  -2.2407  -2.2032  -1.8462  -1.7753  -1.1867
    -0.6815   1.1940   1.6684   3.3139   4.6886   6.3030   6.6385   6.9348
     7.8404   7.9327   8.0509   8.7186   9.1079   9.6287   9.9199  10.4095
    10.5736  10.9791  11.1575  11.5073  11.7550  12.1946  12.4696  13.0873
    13.5719  13.7861  14.0882  14.2293  14.5514  14.9699  15.5648  15.6371

          k =-0.0864-0.1497 0.0000 (  5038 PWs)   bands (ev):

   -90.6790 -90.5575 -90.5186 -90.5060 -54.2030 -54.1515 -54.1068 -54.0943
   -54.0429 -54.0353 -54.0349 -54.0079 -53.9978 -53.9715 -53.9364 -53.9069
   -13.8556  -6.2767  -5.2470  -4.1200  -4.0590  -3.9950  -3.9154  -3.8599
    -3.6967  -3.3369  -3.2615  -3.1973  -3.1308  -3.0142  -2.8313  -2.8062
    -2.6976  -2.2758  -2.2598  -2.0870  -1.8492  -1.6551  -1.0568  -0.4895
     1.4236   1.4964   3.3378   3.8966   6.1379   7.4079   7.8438   7.9535
     8.1805   8.3927   8.9401   9.1393   9.4670   9.6467   9.8853  10.1109
    10.4330  10.6904  10.9599  11.1978  11.4184  11.6288  11.8875  12.4179
    13.0640  13.1273  13.4151  13.8068  14.2413  14.4791  14.7049  14.7584

     the Fermi energy is     1.5536 ev

!    total energy              =   -1205.86509556 Ry
     Harris-Foulkes estimate   =   -1205.86509509 Ry
     estimated scf accuracy    <       0.00000052 Ry

     The total energy is the sum of the following terms:

     one-electron contribution =   -5968.48079346 Ry
     hartree contribution      =    2981.64782621 Ry
     xc contribution           =    -123.23058602 Ry
     ewald contribution        =    1904.20775153 Ry
     electric field correction =       0.00000054 Ry
     smearing contrib. (-TS)   =      -0.00929436 Ry

     convergence has been achieved in   6 iterations

     Forces acting on atoms (Ry/au):


     negative rho (up, down):  2.407E-03 0.000E+00
     atom    1 type  1   force =    -0.00141936    0.00096767   -0.00258147
     atom    2 type  1   force =     0.00095264   -0.00010329   -0.02005397
     atom    3 type  1   force =    -0.01699553    0.00371575    0.00897845
     atom    4 type  1   force =     0.01706021   -0.00574981    0.01358174
     atom    5 type  2   force =    -0.01295047    0.00569790   -0.01306279
     atom    6 type  3   force =     0.00003740    0.00014772   -0.00051358
     atom    7 type  3   force =     0.00061970    0.00038731    0.00033653
     atom    8 type  3   force =     0.01269542   -0.00506324    0.01331509

     Total force =     0.045171     Total SCF correction =     0.003887
 !ASE
     Check: negative starting charge=   -0.002383
     NEW-OLD atomic charge density approx. for the potential
     Check: negative starting charge=   -0.002382

     negative rho (up, down):  2.404E-03 0.000E+00
 
     Adding external electric field

     Computed dipole along edir(3) : 
        Dipole                0.0090 Ry au,          0.0229 Debye
        Dipole field          0.0001 Ry au
 
        Potential amp.       -0.0043 Ry
        Total length         35.2972 bohr
 

     total cpu time spent up to now is      657.4 secs

     per-process dynamical memory:    31.3 Mb

     Self-consistent Calculation

     iteration #  1     ecut=    29.40 Ry     beta=0.10
     Davidson diagonalization with overlap
     ethr =  1.60E-09,  avg # of iterations =  4.0

     negative rho (up, down):  2.404E-03 0.000E+00
 
     Adding external electric field

     Computed dipole along edir(3) : 
        Dipole                0.0103 Ry au,          0.0262 Debye
        Dipole field          0.0001 Ry au
 
        Potential amp.       -0.0049 Ry
        Total length         35.2972 bohr
 

     total cpu time spent up to now is      660.2 secs

     total energy              =   -1205.86510165 Ry
     Harris-Foulkes estimate   =   -1205.86510436 Ry
     estimated scf accuracy    <       0.00005423 Ry

     iteration #  2     ecut=    29.40 Ry     beta=0.10
     Davidson diagonalization with overlap
     ethr =  6.46E-08,  avg # of iterations =  1.0

     negative rho (up, down):  2.404E-03 0.000E+00
 
     Adding external electric field

     Computed dipole along edir(3) : 
        Dipole                0.0091 Ry au,          0.0232 Debye
        Dipole field          0.0001 Ry au
 
        Potential amp.       -0.0043 Ry
        Total length         35.2972 bohr
 

     total cpu time spent up to now is      661.5 secs

     total energy              =   -1205.86510058 Ry
     Harris-Foulkes estimate   =   -1205.86510268 Ry
     estimated scf accuracy    <       0.00004470 Ry

     iteration #  3     ecut=    29.40 Ry     beta=0.10
     Davidson diagonalization with overlap
     ethr =  5.32E-08,  avg # of iterations =  1.0

     negative rho (up, down):  2.406E-03 0.000E+00
 
     Adding external electric field

     Computed dipole along edir(3) : 
        Dipole                0.0102 Ry au,          0.0258 Debye
        Dipole field          0.0001 Ry au
 
        Potential amp.       -0.0048 Ry
        Total length         35.2972 bohr
 

     total cpu time spent up to now is      662.8 secs

     total energy              =   -1205.86509603 Ry
     Harris-Foulkes estimate   =   -1205.86510128 Ry
     estimated scf accuracy    <       0.00003556 Ry

     iteration #  4     ecut=    29.40 Ry     beta=0.10
     Davidson diagonalization with overlap
     ethr =  4.23E-08,  avg # of iterations =  2.0

     negative rho (up, down):  2.407E-03 0.000E+00
 
     Adding external electric field

     Computed dipole along edir(3) : 
        Dipole                0.0104 Ry au,          0.0265 Debye
        Dipole field          0.0001 Ry au
 
        Potential amp.       -0.0049 Ry
        Total length         35.2972 bohr
 

     total cpu time spent up to now is      664.3 secs

     total energy              =   -1205.86509869 Ry
     Harris-Foulkes estimate   =   -1205.86509871 Ry
     estimated scf accuracy    <       0.00000346 Ry

     iteration #  5     ecut=    29.40 Ry     beta=0.10
     Davidson diagonalization with overlap
     ethr =  4.12E-09,  avg # of iterations =  1.2

     negative rho (up, down):  2.405E-03 0.000E+00
 
     Adding external electric field

     Computed dipole along edir(3) : 
        Dipole                0.0111 Ry au,          0.0281 Debye
        Dipole field          0.0001 Ry au
 
        Potential amp.       -0.0052 Ry
        Total length         35.2972 bohr
 

     total cpu time spent up to now is      665.7 secs

     End of self-consistent calculation

          k = 0.0000 0.0000 0.0000 (  5071 PWs)   bands (ev):

   -90.6830 -90.5594 -90.5261 -90.5092 -54.2058 -54.1301 -54.0829 -54.0690
   -54.0245 -54.0037 -53.9884 -53.9662 -53.9505 -53.9346 -53.9314 -53.9121
   -14.7870  -6.3227  -5.1603  -4.8113  -4.6969  -4.5643  -4.3602  -3.6967
    -3.4032  -3.3210  -3.3029  -3.1897  -3.1833  -2.9748  -2.9123  -2.3502
    -2.3182  -2.2268  -1.9722  -1.9329  -1.8535  -1.8048  -1.5494  -1.4389
     0.0107   0.3036   1.7361   2.0452   2.8211   4.9741   5.2934   5.5854
     6.1869   6.6767   7.1194   8.5622   8.7070   9.5325   9.8704  10.1919
    10.6199  10.8828  11.2895  11.5881  11.7522  12.4495  12.6290  12.8702
    13.1410  13.3241  13.9537  14.2746  15.1528  15.3719  15.5822  16.4188

          k = 0.0000 0.0998 0.0000 (  5031 PWs)   bands (ev):

   -90.6799 -90.5566 -90.5218 -90.5079 -54.1998 -54.1262 -54.1099 -54.0511
   -54.0442 -54.0311 -54.0016 -53.9928 -53.9768 -53.9594 -53.9323 -53.9088
   -14.3613  -5.7044  -5.2694  -4.3132  -4.1529  -4.0512  -3.9271  -3.7727
    -3.5844  -3.4443  -3.3157  -3.0893  -2.9758  -2.8255  -2.8076  -2.6902
    -2.6192  -2.5028  -2.3357  -2.2489  -2.1454  -1.8626  -1.7595  -1.1573
    -0.7989   1.1304   1.6838   3.2712   4.6605   6.3519   6.6375   7.0334
     7.7683   7.9970   8.0588   8.7661   9.0887   9.6835   9.8479  10.3305
    10.5250  10.9975  11.1520  11.3558  11.6966  12.1903  12.3896  12.9605
    13.4684  13.7980  14.1189  14.4263  14.7202  15.0955  15.5227  15.6597

          k = 0.0000-0.1996 0.0000 (  5048 PWs)   bands (ev):

   -90.6770 -90.5537 -90.5185 -90.5056 -54.2088 -54.1636 -54.1155 -54.0736
   -54.0590 -54.0521 -54.0274 -53.9831 -53.9753 -53.9670 -53.9370 -53.9070
   -13.8480  -6.2877  -5.5977  -4.6812  -4.6282  -4.4789  -4.3751  -4.2276
    -3.7775  -3.5029  -3.0804  -2.9357  -2.8458  -2.6506  -2.2806  -1.9782
    -1.9548  -1.9433  -1.5620  -1.5394  -1.4395  -1.4351  -1.2088  -0.7118
     1.5336   2.0879   2.6615   2.9106   5.0466   5.5549   6.0120   6.6816
     8.1879   8.6550   9.0907   9.6453   9.9595  10.4978  10.5994  10.8330
    11.1852  11.2266  11.3575  11.5202  11.7089  12.0888  12.2579  12.4455
    12.5872  12.7333  13.2334  13.3023  13.3503  13.5828  13.8532  14.5043

          k =-0.0864 0.0499 0.0000 (  5024 PWs)   bands (ev):

   -90.6828 -90.5596 -90.5240 -90.5113 -54.1909 -54.1169 -54.0782 -54.0485
   -54.0225 -54.0084 -54.0036 -53.9877 -53.9548 -53.9445 -53.9304 -53.9111
   -14.7772  -5.8368  -5.0273  -4.3646  -4.2255  -4.1706  -4.1296  -3.7392
    -3.6088  -3.3912  -3.3463  -2.9247  -2.8403  -2.7841  -2.7447  -2.6660
    -2.5662  -2.5465  -2.4734  -2.2734  -2.2376  -2.1085  -1.8753  -1.8059
    -1.1271  -0.4411   0.9040   1.8584   3.5254   5.3001   6.0123   6.7230
     6.7472   6.9564   7.4561   8.2337   8.3050   8.7393   9.3982  10.1230
    10.5819  10.8663  11.3575  11.6139  11.9657  12.4871  13.3545  13.9671
    14.2838  14.6352  14.7502  15.4828  15.8638  16.0876  16.7863  16.9071

          k =-0.0864 0.1497 0.0000 (  5031 PWs)   bands (ev):

   -90.6799 -90.5566 -90.5218 -90.5079 -54.1937 -54.1390 -54.1046 -54.0571
   -54.0401 -54.0243 -54.0046 -53.9949 -53.9768 -53.9578 -53.9322 -53.9088
   -14.3616  -5.6402  -5.2091  -4.3327  -4.1655  -4.0882  -3.9108  -3.8398
    -3.6690  -3.4595  -3.2716  -3.1396  -2.9554  -2.8384  -2.7943  -2.7097
    -2.6278  -2.4993  -2.3095  -2.2395  -2.2012  -1.8451  -1.7734  -1.1843
    -0.6826   1.1947   1.6679   3.3122   4.6869   6.2982   6.6366   6.9345
     7.8418   7.9334   8.0504   8.7172   9.1022   9.6241   9.9182  10.4094
    10.5753  10.9766  11.1579  11.5049  11.7555  12.1913  12.4709  13.0943
    13.5737  13.7853  14.0896  14.2297  14.5490  14.9671  15.5650  15.6350

          k =-0.0864-0.1497 0.0000 (  5038 PWs)   bands (ev):

   -90.6770 -90.5537 -90.5185 -90.5057 -54.2008 -54.1495 -54.1050 -54.0911
   -54.0390 -54.0349 -54.0346 -54.0078 -53.9972 -53.9683 -53.9362 -53.9064
   -13.8534  -6.2677  -5.2354  -4.1178  -4.0581  -3.9911  -3.9136  -3.8587
    -3.6935  -3.3358  -3.2603  -3.1929  -3.1300  -3.0132  -2.8309  -2.8054
    -2.6940  -2.2737  -2.2587  -2.0859  -1.8473  -1.6541  -1.0540  -0.4941
     1.4245   1.4969   3.3342   3.9005   6.1288   7.4102   7.8477   7.9545
     8.1827   8.3919   8.9389   9.1371   9.4603   9.6472   9.8834  10.1118
    10.4321  10.6879  10.9599  11.1985  11.4152  11.6289  11.8802  12.4164
    13.0607  13.1230  13.4138  13.8061  14.2399  14.4721  14.6995  14.7598

     the Fermi energy is     1.5539 ev

!    total energy              =   -1205.86509892 Ry
     Harris-Foulkes estimate   =   -1205.86509874 Ry
     estimated scf accuracy    <       0.00000093 Ry

     The total energy is the sum of the following terms:

     one-electron contribution =   -5967.08821793 Ry
     hartree contribution      =    2980.95674041 Ry
     xc contribution           =    -123.22907236 Ry
     ewald contribution        =    1903.50478348 Ry
     electric field correction =       0.00000082 Ry
     smearing contrib. (-TS)   =      -0.00933334 Ry

     convergence has been achieved in   5 iterations

     Forces acting on atoms (Ry/au):


     negative rho (up, down):  2.405E-03 0.000E+00
     atom    1 type  1   force =    -0.00139088    0.00080966   -0.00259217
     atom    2 type  1   force =     0.00081094   -0.00006193   -0.01979427
     atom    3 type  1   force =    -0.01652392    0.00387970    0.00949835
     atom    4 type  1   force =     0.01685530   -0.00550508    0.01361626
     atom    5 type  2   force =    -0.01306121    0.00565115   -0.01371586
     atom    6 type  3   force =    -0.00016183    0.00022432   -0.00052658
     atom    7 type  3   force =     0.00028766    0.00034839    0.00015187
     atom    8 type  3   force =     0.01318394   -0.00534621    0.01336240

     Total force =     0.045300     Total SCF correction =     0.004286
 !ASE
 
     init_run     :      0.97s CPU      0.98s WALL (       1 calls)
     electrons    :    605.08s CPU    610.72s WALL (      47 calls)
     update_pot   :     19.98s CPU     20.30s WALL (      46 calls)
     forces       :     27.93s CPU     28.04s WALL (      47 calls)

     Called by init_run:
     wfcinit      :      0.34s CPU      0.34s WALL (       1 calls)
     potinit      :      0.14s CPU      0.14s WALL (       1 calls)

     Called by electrons:
     c_bands      :    462.23s CPU    466.34s WALL (     363 calls)
     sum_band     :     90.24s CPU     91.12s WALL (     363 calls)
     v_of_rho     :      9.92s CPU     10.04s WALL (     410 calls)
     newd         :     44.43s CPU     44.58s WALL (     410 calls)
     mix_rho      :      2.40s CPU      2.42s WALL (     363 calls)

     Called by c_bands:
     init_us_2    :      2.49s CPU      2.60s WALL (    4644 calls)
     cegterg      :    448.13s CPU    452.08s WALL (    2178 calls)

     Called by *egterg:
     h_psi        :    201.00s CPU    203.61s WALL (    7332 calls)
     s_psi        :     13.50s CPU     13.56s WALL (    7332 calls)
     g_psi        :      2.01s CPU      2.02s WALL (    5148 calls)
     cdiaghg      :    124.39s CPU    124.83s WALL (    7050 calls)

     Called by h_psi:
     add_vuspsi   :     13.91s CPU     13.92s WALL (    7332 calls)

     General routines
     calbec       :     25.09s CPU     25.26s WALL (    9792 calls)
     fft          :      9.41s CPU      9.51s WALL (    6935 calls)
     ffts         :      0.22s CPU      0.26s WALL (     773 calls)
     fftw         :    169.59s CPU    171.87s WALL (  877896 calls)
     interpolate  :      1.23s CPU      1.31s WALL (     773 calls)
 
     Parallel routines
     fft_scatter  :     79.33s CPU     79.61s WALL (  885604 calls)
 
     PWSCF        : 10m59.15s CPU    11m 6.50s WALL

 
   This run was terminated on:   6:24:44  18Feb2017            

=------------------------------------------------------------------------------=
   JOB DONE.
=------------------------------------------------------------------------------=
Job  /afs/slac/g/suncat/bin/suncat-tsmpirun -x LD_LIBRARY_PATH -wdir /scratch/qe259882_Jv6PD pw.x -in pw.inp

TID   HOST_NAME   COMMAND_LINE            STATUS            TERMINATION_TIME
===== ========== ================  =======================  ===================
00000 suncat1015 pw.x -in pw.inp   Done                     02/18/2017 06:24:44
00001 suncat1015 pw.x -in pw.inp   Done                     02/18/2017 06:24:44
00002 suncat1015 pw.x -in pw.inp   Done                     02/18/2017 06:24:44
00003 suncat1015 pw.x -in pw.inp   Done                     02/18/2017 06:24:44
00004 suncat1015 pw.x -in pw.inp   Done                     02/18/2017 06:24:44
00005 suncat1015 pw.x -in pw.inp   Done                     02/18/2017 06:24:44
00006 suncat1015 pw.x -in pw.inp   Done                     02/18/2017 06:24:44
00007 suncat1015 pw.x -in pw.inp   Done                     02/18/2017 06:24:44
00008 suncat1015 pw.x -in pw.inp   Done                     02/18/2017 06:24:44
00009 suncat1015 pw.x -in pw.inp   Done                     02/18/2017 06:24:44
00010 suncat1015 pw.x -in pw.inp   Done                     02/18/2017 06:24:44
00011 suncat1015 pw.x -in pw.inp   Done                     02/18/2017 06:24:44
